10
Properties=species:S:1:pos:R:3:forces:R:3 reference_stdout=/dodrio/scratch/projects/2022_069/sander/mlip/learning/psiflow_internal/000/task_logs/0001/task_17620_pyscf_singlepoint_pre.stdout reference_stderr=/dodrio/scratch/projects/2022_069/sander/mlip/learning/psiflow_internal/000/task_logs/0001/task_17620_pyscf_singlepoint_pre.stderr reference_status=T CV=0.095728 energy=-10320.328093024751 identifier=425 pbc="F F F"
O        0.21469904      -0.58573049      -1.74338686       2.32275325      -1.55537681       0.00792634
C       -0.82906699      -0.04804212      -1.39174080      -1.40870793       3.28573827       2.49397539
O       -1.06640923       0.36766362      -0.17631182      -0.60955558      -0.36943424      -1.01152528
H       -1.46596968       0.38182852      -2.18254542      -0.58194679      -0.48846957       0.04573952
H       -0.45645875       0.01172680       0.92940420       0.09624081      -1.18154036      -0.43180736
O        0.10279142      -0.66909552       1.77692521      -1.33618408       1.04614131      -1.71992337
C        1.18547952      -1.09815586       1.27002418       2.42505519       0.74873708       2.46079192
O        1.77784753      -0.88578850       0.16123313      -1.95361587      -0.16427212       0.03474057
H        1.80340230      -1.46491909       2.14205551       0.09879435      -0.67435732      -1.02409669
H        0.88875115      -0.60563570      -0.68176860       0.94698409      -0.64785053      -0.85917299
10
Properties=species:S:1:pos:R:3:forces:R:3 reference_stdout=/dodrio/scratch/projects/2022_069/sander/mlip/learning/psiflow_internal/000/task_logs/0000/task_9204_pyscf_singlepoint_pre.stdout reference_stderr=/dodrio/scratch/projects/2022_069/sander/mlip/learning/psiflow_internal/000/task_logs/0000/task_9204_pyscf_singlepoint_pre.stderr reference_status=T CV=0.660667 energy=-10320.874635636697 identifier=237 pbc="F F F"
O       -0.91213572      -1.83888185       0.38476628       1.96849435       0.49724730      -0.02024613
C        0.33133996      -2.11364698       0.77987623      -1.46777900       1.89575061      -0.08877661
O        1.29432213      -1.31960464       0.82822609      -0.13997632      -0.24380367      -0.52395940
H        0.41115898      -3.08845711       1.19525564       0.31180474      -1.43778997       0.40944704
H        1.43839669       0.07291894       0.02007604      -0.02469059       0.24198902       0.20933057
O        1.39421880       0.99668354      -0.47530416      -1.74540063      -1.02590081      -0.29344516
C        0.13382474       1.09906888      -0.91059059      -0.02117559      -2.17173583       1.76390772
O       -0.85451770       0.32387644      -0.67155457       1.86110722       2.45395740      -1.06158344
H        0.00346951       1.97041917      -1.49333715      -0.41065649       1.23476634      -0.90274323
H       -0.81993628      -0.77144831      -0.04781613      -0.33175953      -1.44465690       0.51169922
10
Properties=species:S:1:pos:R:3:forces:R:3 reference_stdout=/dodrio/scratch/projects/2022_069/sander/mlip/learning/psiflow_internal/000/task_logs/0002/task_21939_pyscf_singlepoint_pre.stdout reference_stderr=/dodrio/scratch/projects/2022_069/sander/mlip/learning/psiflow_internal/000/task_logs/0002/task_21939_pyscf_singlepoint_pre.stderr reference_status=T CV=1.101964 energy=-10320.810266155488 identifier=545 pbc="F F F"
O        0.43274224       1.06557429       1.12887323      -1.73927205      -0.27924639      -0.57554165
C        1.57572842       0.54237020       0.82005060       1.16767845      -2.02757155      -1.47505678
O        1.78576458      -0.55451447       0.26211950      -0.88552464      -0.17459570       0.11210795
H        2.56180382       1.00232053       0.92238849      -0.39722874       1.54307170       1.04981821
H        0.69249761      -1.44638956      -0.48223889       0.58642520       0.30346712       0.14763856
O        0.07602201      -1.92047012      -1.12996745       0.18625896      -0.70341424      -0.48429897
C       -1.11113214      -1.41459775      -0.96622419      -0.34995716      -1.52461176      -1.27054380
O       -1.37631893      -0.53839618      -0.17881897      -0.95985582       1.77958622       1.23262969
H       -1.88490295      -1.92599714      -1.63615990       0.57969239       0.58460699       0.60450711
H       -0.39356691       0.48460010       0.68186402       1.80412789       0.50210063       0.66477987
10
Properties=species:S:1:pos:R:3:forces:R:3 reference_stdout=/dodrio/scratch/projects/2022_069/sander/mlip/learning/psiflow_internal/000/task_logs/0002/task_21960_pyscf_singlepoint_pre.stdout reference_stderr=/dodrio/scratch/projects/2022_069/sander/mlip/learning/psiflow_internal/000/task_logs/0002/task_21960_pyscf_singlepoint_pre.stderr reference_status=T CV=0.330275 energy=-10320.837536819334 identifier=530 pbc="F F F"
O        1.35883665       0.36676550      -0.93340242      -1.05911028      -0.11438381      -0.65171375
C        1.35339618       0.88971466       0.23000672       2.12821148      -1.08174968       2.21187232
O        0.84430599       0.40956679       1.31320238       0.20673359       0.86839083      -2.06803151
H        2.19843054       1.63080943       0.35442334      -1.09900611       0.14532751      -0.02426362
H        0.05794316      -0.54704911       0.99563175      -1.12639370      -0.08291209       0.62232142
O       -0.87340540      -1.29893303       0.93366933       0.72842389      -0.85996803      -1.97012478
C       -0.95348805      -1.81139815      -0.29179549      -1.05078790       0.23799166       2.79902362
O       -0.38315618      -1.38046515      -1.29423153       0.85573611       0.22065881      -1.10339673
H       -1.65541351      -2.68615675      -0.37730324       0.34710767       0.46083181       0.01247518
H        0.57996953      -0.43481603      -1.09387255       0.07587602       0.20793240       0.16568335
10
Properties=species:S:1:pos:R:3:forces:R:3 reference_stdout=/dodrio/scratch/projects/2022_069/sander/mlip/learning/psiflow_internal/000/task_logs/0000/task_4918_pyscf_singlepoint_pre.stdout reference_stderr=/dodrio/scratch/projects/2022_069/sander/mlip/learning/psiflow_internal/000/task_logs/0000/task_4918_pyscf_singlepoint_pre.stderr reference_status=T CV=-0.900546 energy=-10321.064066233686 identifier=108 pbc="F F F"
O        0.24368128      -1.37628973       1.33791220       0.06784621       0.15758239       0.19356982
C       -0.22369003      -2.21707892       0.55611050       0.88176309       0.14433198       0.14648613
O       -0.58736956      -1.98329115      -0.66717297       0.61060307       1.38234121      -0.86209479
H       -0.22068784      -3.28639460       0.85737967      -0.50489453       0.16557644      -0.08872248
H       -0.22771525      -0.95955396      -0.95350915      -0.91825722      -1.12499027       0.44180495
O        0.19908400       0.47111464      -1.38214302       0.33215523      -0.35361093       0.37592040
C        0.83181852       1.18793321      -0.58547628       0.27445646       0.74218487      -1.22572051
O        0.91942537       1.07703435       0.69421834      -0.19175337      -1.88688784       0.81678027
H        1.44735837       2.04991007      -0.94662762      -0.47961519      -0.14566602      -0.14413270
H        0.60282421       0.06075650       0.91640902      -0.07701005       0.91384631       0.34549835
10
Properties=species:S:1:pos:R:3:forces:R:3 reference_stdout=/dodrio/scratch/projects/2022_069/sander/mlip/learning/psiflow_internal/000/task_logs/0001/task_13365_pyscf_singlepoint_pre.stdout reference_stderr=/dodrio/scratch/projects/2022_069/sander/mlip/learning/psiflow_internal/000/task_logs/0001/task_13365_pyscf_singlepoint_pre.stderr reference_status=T CV=-0.820571 energy=-10320.593371510116 identifier=310 pbc="F F F"
O        1.62421119       0.21304391      -0.22532558       0.06329555      -0.15585552       2.17083007
C        1.52258933       0.26431304       1.04240489      -0.88233036      -0.74543223      -3.27601722
O        0.63541424      -0.32086787       1.78647017      -0.75759279      -1.55429038      -0.43934563
H        2.20768714       0.88409638       1.54469800       1.05426871       0.96494008       1.18011923
H        0.03658483      -1.03290796       1.20560098       0.78268226       1.62339452       0.37267639
O       -1.00223076      -1.49699545       0.12792090      -0.07134952      -0.61893140       1.01749396
C       -1.18482161      -1.03158247      -0.97743261      -0.29034735       2.26564179      -3.44182316
O       -0.19999184      -0.46258643      -1.78949010      -1.68791054      -1.51364884       2.86338391
H       -2.28994846      -0.89378417      -1.45306778       2.21099161      -0.55975757       0.78267321
H        0.60658628      -0.37273252      -1.04768324      -0.42653620       0.29101530      -1.23250536
10
Properties=species:S:1:pos:R:3:forces:R:3 reference_stdout=/dodrio/scratch/projects/2022_069/sander/mlip/learning/psiflow_internal/000/task_logs/0001/task_17599_pyscf_singlepoint_pre.stdout reference_stderr=/dodrio/scratch/projects/2022_069/sander/mlip/learning/psiflow_internal/000/task_logs/0001/task_17599_pyscf_singlepoint_pre.stderr reference_status=T CV=-1.000914 energy=-10320.70284827222 identifier=408 pbc="F F F"
O        0.62668914      -2.11127830      -0.29410151      -0.02118570      -0.20941839       1.23928649
C        0.74534369      -2.01079798       0.94840586       0.21756479      -0.16789713      -0.56874814
O        0.81287235      -0.84473717       1.58262086       0.36910816      -0.26819626      -1.30449327
H        0.84118372      -2.95604467       1.58607721      -0.17922902       1.22343206      -0.40755366
H        0.74723852      -0.11897580       0.82525587      -0.70174044      -0.65282597       1.70077791
O       -0.54634100       1.07619739       0.29524180       0.60762289      -0.13672285      -0.38655854
C       -0.35913396       1.05309474      -0.92354769      -0.01174982      -0.75951342      -0.77196645
O        0.08048153      -0.00978556      -1.64187407      -0.25280292       0.46539615       1.70723918
H       -0.58856195       1.96902692      -1.54495215       0.22878619      -0.73380254       0.09023008
H        0.28254303      -0.88988990      -0.95867187      -0.25710069       1.23914357      -1.29652495
10
Properties=species:S:1:pos:R:3:forces:R:3 reference_stdout=/dodrio/scratch/projects/2022_069/sander/mlip/learning/psiflow_internal/000/task_logs/0000/task_2829_pyscf_singlepoint_pre.stdout reference_stderr=/dodrio/scratch/projects/2022_069/sander/mlip/learning/psiflow_internal/000/task_logs/0000/task_2829_pyscf_singlepoint_pre.stderr reference_status=T CV=-0.976521 energy=-10320.270743158402 identifier=57 pbc="F F F"
O        1.03997516      -1.46441414       0.97836750       4.60997149       3.36573491       1.59569058
C        0.14935700      -2.17440255       0.68067719      -2.01813353      -3.74765269       0.12185139
O       -0.78344872      -1.86304192      -0.11537003      -2.54322824      -1.97010890      -0.87530434
H        0.10583526      -3.24466714       1.11359543      -0.24576952       1.07320909      -0.55948392
H       -0.74328365      -0.94434489      -0.49806035       0.37317781       1.54987701      -0.41014661
O       -0.62265168       0.48872611      -1.04432863       0.46741082      -0.40584130       0.57803645
C        0.33828206       1.20157983      -0.65583159      -8.45119547       3.19710399      -7.71843032
O        1.23319157       1.00857867       0.06099613       7.80612277      -3.92941591       6.87804481
H        0.34066951       2.21351013      -1.13895303       0.08494207       0.04340558       0.27099281
H        1.22128852      -0.03880064       0.40423690      -0.08538583       0.81868027       0.12588285
10
Properties=species:S:1:pos:R:3:forces:R:3 reference_stdout=/dodrio/scratch/projects/2022_069/sander/mlip/learning/psiflow_internal/000/task_logs/0000/task_7027_pyscf_singlepoint_pre.stdout reference_stderr=/dodrio/scratch/projects/2022_069/sander/mlip/learning/psiflow_internal/000/task_logs/0000/task_7027_pyscf_singlepoint_pre.stderr reference_status=T CV=-0.261329 energy=-10320.79329013856 identifier=170 pbc="F F F"
O        0.75126082       0.17755887       1.41682124      -0.32244844       0.69260791       0.76908729
C        0.78997731       1.14159608       0.61398453       0.39513647      -0.58962035      -2.30590175
O        0.70593619       1.00945759      -0.67981350       0.03867910       0.80267075       0.59650460
H        0.98435199       2.22147727       0.78373462      -0.02815315      -0.42035369       1.22907265
H        0.36488262       0.03149725      -1.00256288      -0.21057128      -0.31082989       0.18997809
O       -0.22789316      -1.07563519      -1.41232598      -0.79997578      -1.85109929       0.20619316
C       -0.47054243      -2.06406689      -0.63112211       1.66066847       2.09496210       0.41495885
O       -0.18510117      -2.03095889       0.65282083      -0.49340289       0.15415034      -1.11358670
H       -0.83784169      -2.99065065      -1.14013052      -0.02886113       0.23934420       0.81348199
H        0.26608691      -0.93422449       1.03834653      -0.20870239      -0.81340232      -0.80174941
10
Properties=species:S:1:pos:R:3:forces:R:3 reference_stdout=/dodrio/scratch/projects/2022_069/sander/mlip/learning/psiflow_internal/000/task_logs/0001/task_17687_pyscf_singlepoint_pre.stdout reference_stderr=/dodrio/scratch/projects/2022_069/sander/mlip/learning/psiflow_internal/000/task_logs/0001/task_17687_pyscf_singlepoint_pre.stderr reference_status=T CV=0.840761 energy=-10320.784775554379 identifier=439 pbc="F F F"
O        0.36477131      -0.66253728       1.64708328      -1.21720750      -1.54831362       0.38076681
C        1.17139769       0.25123948       1.35301352       2.13344902       2.94030611      -1.48328091
O        1.58909750       0.57530892       0.17497957      -1.13706506      -0.52419591       2.50795788
H        1.43170786       0.83464193       2.29968143       0.44020496      -0.26024397      -1.08759742
H        0.60463852       0.15020512      -0.93532676       0.29241935      -0.30432718      -0.51933658
O        0.07137934      -0.28751853      -1.75183165       1.26799138       1.11262505       1.56850672
C       -0.74549353      -1.19031715      -1.31419778      -0.70272279       0.23466796       0.10028008
O       -1.05062544      -1.53670788      -0.15082088       0.62957272       0.19245768      -1.35938508
H       -1.19544280      -1.51394117      -2.22920275      -1.25875929      -1.45737094      -0.45109416
H       -0.10416247      -1.03848135       0.77959037      -0.44835906      -0.38658176       0.33955949
10
Properties=species:S:1:pos:R:3:forces:R:3 reference_stdout=/dodrio/scratch/projects/2022_069/sander/mlip/learning/psiflow_internal/000/task_logs/0000/task_5017_pyscf_singlepoint_pre.stdout reference_stderr=/dodrio/scratch/projects/2022_069/sander/mlip/learning/psiflow_internal/000/task_logs/0000/task_5017_pyscf_singlepoint_pre.stderr reference_status=T CV=-1.057998 energy=-10321.234074829097 identifier=106 pbc="F F F"
O       -0.57075453      -2.04475451      -0.03366314       0.46266172       0.68076477       0.92325095
C       -0.04663622      -1.92642331       1.09497893      -1.04588392      -0.99655399      -0.38105857
O        0.81590414      -1.04870558       1.49760115       0.28898166       0.59845732       0.42069206
H       -0.33282495      -2.62459993       1.93345559       0.26736896       0.19463989      -0.56434600
H        0.96779042      -0.24608883       0.85595071       0.07418457      -0.31809140      -0.20786004
O        1.19752455       0.94692850      -0.07283695      -0.00994726      -0.25872958       0.20087663
C        0.46906829       1.03848791      -1.05734789      -0.77985472       0.17730027      -0.63670746
O       -0.46618420       0.19485725      -1.48508477       0.64520029       0.01566177       0.94505489
H        0.51017797       1.93832815      -1.69783640       0.08209526      -0.07463673      -0.10027565
H       -0.50680548      -0.62526017      -0.84246123       0.01887716      -0.01787807      -0.59322584
10
Properties=species:S:1:pos:R:3:forces:R:3 reference_stdout=/dodrio/scratch/projects/2022_069/sander/mlip/learning/psiflow_internal/000/task_logs/0001/task_15514_pyscf_singlepoint_pre.stdout reference_stderr=/dodrio/scratch/projects/2022_069/sander/mlip/learning/psiflow_internal/000/task_logs/0001/task_15514_pyscf_singlepoint_pre.stderr reference_status=T CV=-0.658745 energy=-10321.122714752064 identifier=363 pbc="F F F"
O        0.85014588       1.06487656       0.03352662       0.53596091       0.34471269       0.08681714
C        1.19013524       0.63846326      -1.08474326      -1.15498913       0.49403995       0.41601492
O        0.94770259      -0.53799915      -1.51746488      -0.13429611      -1.57254092       0.07320066
H        1.56865585       1.30366778      -1.85522377       0.62782082       0.45899312      -0.21677562
H        0.49914461      -1.18066490      -0.71243823       0.52658927       0.28808043      -0.79830306
O       -0.05738576      -2.09545946       0.14637423      -0.44298807      -0.73323725       0.06610498
C       -0.79073858      -1.59815168       1.01754367       1.03612218       1.74328614      -0.34451810
O       -0.74258274      -0.32926911       1.33835697      -0.62312969      -0.70210953       0.42816951
H       -1.51950216      -2.13472748       1.60092974      -0.46344972      -0.76385691       0.28232759
H       -0.00998766       0.16844185       0.77587485       0.09042691       0.43993728       0.00693736
10
Properties=species:S:1:pos:R:3:forces:R:3 reference_stdout=/dodrio/scratch/projects/2022_069/sander/mlip/learning/psiflow_internal/000/task_logs/0001/task_13481_pyscf_singlepoint_pre.stdout reference_stderr=/dodrio/scratch/projects/2022_069/sander/mlip/learning/psiflow_internal/000/task_logs/0001/task_13481_pyscf_singlepoint_pre.stderr reference_status=T CV=-1.202975 energy=-10320.874721103086 identifier=304 pbc="F F F"
O       -0.70947778      -0.33228233      -1.46662259      -1.42514555       1.43726902       2.56114605
C       -1.34382904       0.34861571      -0.57596862       1.16287667      -1.65816405      -2.40493768
O       -0.89075136       0.77648586       0.56361437      -2.39135121       1.18435096      -0.05736033
H       -2.41218805       0.64393729      -0.69779450       0.36542022      -0.06084454      -0.33812347
H       -0.05780598       0.37571764       0.84980130       1.93926648      -0.89364345       0.02904782
O        1.22131431      -0.32199591       1.18283236       2.11993044      -2.26868355      -1.01185687
C        1.78938639      -1.31298900       0.62142062      -1.61646208       1.63525754       1.53092344
O        1.32797432      -1.99461722      -0.40301934       0.02181340       0.85770618      -0.44365484
H        2.70359993      -1.75540352       1.02274764       0.30901016       0.00668067       0.20125700
H        0.64553624      -1.38766289      -0.84602177      -0.48582225      -0.24351168      -0.07273344
10
Properties=species:S:1:pos:R:3:forces:R:3 reference_stdout=/dodrio/scratch/projects/2022_069/sander/mlip/learning/psiflow_internal/000/task_logs/0000/task_7017_pyscf_singlepoint_pre.stdout reference_stderr=/dodrio/scratch/projects/2022_069/sander/mlip/learning/psiflow_internal/000/task_logs/0000/task_7017_pyscf_singlepoint_pre.stderr reference_status=T CV=-0.926201 energy=-10321.175573524848 identifier=159 pbc="F F F"
O       -0.35039786      -1.89540040       0.40215731      -0.94312629       0.80186429       0.50270048
C       -1.06090915      -1.12738872       1.08758926       0.74436033      -0.04074829       0.52309752
O       -1.02226377       0.20716803       1.17087877      -0.29694963      -1.29809561      -0.45817035
H       -1.74989760      -1.60904384       1.83391714       0.09602544       0.59990625      -0.45758494
H       -0.34635559       0.60280132       0.49148676       0.27872083      -0.45544935       0.21069397
O        0.91222256       0.96084350      -0.40215725      -0.90688863       0.04809143       0.53441394
C        1.48334312       0.15597320      -1.13448524       0.81179651       0.56360222      -0.37447748
O        1.42702746      -1.13735700      -1.18868041      -0.55981532      -0.40167963       0.31806867
H        2.19434905       0.57302684      -1.84335303       0.50504666       0.03068355      -0.57446208
H        0.68881977      -1.47524881      -0.50983042       0.26965548       0.16016092      -0.22380546
10
Properties=species:S:1:pos:R:3:forces:R:3 reference_stdout=/dodrio/scratch/projects/2022_069/sander/mlip/learning/psiflow_internal/000/task_logs/0001/task_15526_pyscf_singlepoint_pre.stdout reference_stderr=/dodrio/scratch/projects/2022_069/sander/mlip/learning/psiflow_internal/000/task_logs/0001/task_15526_pyscf_singlepoint_pre.stderr reference_status=T CV=0.282361 energy=-10320.557581750958 identifier=380 pbc="F F F"
O        1.34086013      -0.65197682      -1.24819970       1.28923727       0.85591150       1.61407201
C        2.06592464      -0.22798002      -0.21576078      -5.57170111      -0.53567035       0.73099300
O        1.46947789       0.00040019       0.93343389       2.76575118      -0.42443591      -2.22714455
H        3.09490776      -0.05571102      -0.41969007       1.24851397       0.19421245       0.18158381
H        0.16966295      -0.16503891       0.97256815       0.45201912       0.80758232       0.06065343
O       -0.92008823      -0.14669135       1.14550638      -0.79140666      -0.83320059       0.95109938
C       -1.49228311      -0.87368119       0.26172617      -1.71692628      -0.26954103       0.33588230
O       -1.05818975      -0.96048123      -0.90612203      -0.16181031      -0.72914676      -0.36947911
H       -2.49581409      -1.45169020       0.55693656       1.75421953       1.21385773      -0.51514012
H        0.17546950      -0.67341274      -0.96844816       0.73613173      -0.27891758      -0.75987349
10
Properties=species:S:1:pos:R:3:forces:R:3 reference_stdout=/dodrio/scratch/projects/2022_069/sander/mlip/learning/psiflow_internal/000/task_logs/0001/task_11314_pyscf_singlepoint_pre.stdout reference_stderr=/dodrio/scratch/projects/2022_069/sander/mlip/learning/psiflow_internal/000/task_logs/0001/task_11314_pyscf_singlepoint_pre.stderr reference_status=T CV=0.985552 energy=-10320.973933459432 identifier=293 pbc="F F F"
O       -0.72862536      -0.54507536       1.59304047       0.23609183       0.00616225      -1.93222389
C       -1.58043253      -0.42056173       0.55573827       2.91737079      -0.23674678      -1.52716026
O       -1.24022055      -0.32353145      -0.66882205      -1.09044563       0.07586130       2.67013565
H       -2.60464287      -0.46975225       0.84791076      -1.13045353       0.08518276       0.33818025
H        0.15666980      -0.00585559      -0.98064965       0.98443980      -0.30911426      -0.66647503
O        1.13565421      -0.03533670      -1.43886757      -0.60615020       0.51138029       0.54775798
C        2.00988150      -0.57964772      -0.61578745      -0.56243690      -0.45304860      -2.46143953
O        1.78712857      -0.91939092       0.52748507      -0.05631741      -0.12087572       1.61524742
H        2.89759183      -0.86813122      -1.24075401       0.18637101       0.28769312       0.86562914
H        0.24973480      -0.64721346       1.17727375      -0.87740510       0.15022255       0.54999815
10
Properties=species:S:1:pos:R:3:forces:R:3 reference_stdout=/dodrio/scratch/projects/2022_069/sander/mlip/learning/psiflow_internal/000/task_logs/0000/task_2892_pyscf_singlepoint_pre.stdout reference_stderr=/dodrio/scratch/projects/2022_069/sander/mlip/learning/psiflow_internal/000/task_logs/0000/task_2892_pyscf_singlepoint_pre.stderr reference_status=T CV=0.321572 energy=-10320.863516973453 identifier=78 pbc="F F F"
O        1.14092269      -1.34588780       1.05701513       3.93567501       3.04287973       1.79269653
C        0.25122690      -2.05261968       0.67281374      -3.77935959      -5.28927835      -0.22203298
O       -0.67466401      -1.82145709      -0.13385716      -0.50138086      -0.05483027      -0.44076886
H        0.21751581      -3.09318411       1.14959576       0.11916839       0.73700456      -0.43852333
H       -0.67270009      -0.65497754      -0.57734977       0.07047351       0.08609956      -0.07734242
O       -0.70586981       0.39775038      -1.00690687      -0.48216366       0.75707205      -0.83437682
C        0.28092139       1.15961047      -0.72310930      -0.74996181      -1.79951849       1.00037933
O        1.21495834       0.83958197       0.03683641       0.91351265       0.31101688       0.31597043
H        0.22724238       2.14614199      -1.08474519       0.03890229       1.67627613      -0.88730087
H        1.11149357      -0.34512514       0.59246976       0.44069349       0.53609996      -0.21451145
10
Properties=species:S:1:pos:R:3:forces:R:3 reference_stdout=/dodrio/scratch/projects/2022_069/sander/mlip/learning/psiflow_internal/000/task_logs/0000/task_4936_pyscf_singlepoint_pre.stdout reference_stderr=/dodrio/scratch/projects/2022_069/sander/mlip/learning/psiflow_internal/000/task_logs/0000/task_4936_pyscf_singlepoint_pre.stderr reference_status=T CV=0.269156 energy=-10321.032665498416 identifier=130 pbc="F F F"
O        0.82683629      -0.06987610       1.47480905      -0.53171555      -0.54805947      -0.03143253
C        0.39768949      -1.28044438       1.63691092       0.70713320       0.18546053      -1.14118254
O        0.00808962      -2.01677442       0.67307442      -0.32908634      -0.00128762       1.22558026
H        0.48497435      -1.70934296       2.67076302      -0.19402911       0.25332856      -0.60440749
H       -0.25135869      -1.42113185      -0.37706828       0.39465338       0.54064148      -0.48813299
O       -0.41363931      -0.86585343      -1.44540906      -0.30135411      -0.22466360       0.09227855
C       -0.00306368       0.33541307      -1.62180638       0.54579954      -0.55497316       1.13613191
O        0.56962466       1.06807029      -0.76159012      -0.30401390      -0.81112095       0.07130196
H       -0.12520687       0.69523430      -2.63147235      -0.16626327       0.50794825      -0.72142025
H        0.69267154       0.30733776       0.39262784       0.18194676       0.65501294       0.46190194
10
Properties=species:S:1:pos:R:3:forces:R:3 reference_stdout=/dodrio/scratch/projects/2022_069/sander/mlip/learning/psiflow_internal/000/task_logs/0001/task_19787_pyscf_singlepoint_pre.stdout reference_stderr=/dodrio/scratch/projects/2022_069/sander/mlip/learning/psiflow_internal/000/task_logs/0001/task_19787_pyscf_singlepoint_pre.stderr reference_status=T CV=0.925048 energy=-10320.95394554546 identifier=490 pbc="F F F"
O       -1.39495206      -0.52682561      -0.03242960       0.28636829       0.24339450      -0.00093907
C       -1.05996561      -1.18777823      -1.11908305      -1.23339077      -0.59748118       1.13077242
O        0.07912922      -1.37244654      -1.55121028      -0.08573577       0.21538434      -0.46437217
H       -2.02663994      -1.68304324      -1.47524881       1.18031027       0.33570790      -0.47801901
H        1.13790929      -0.77143693      -0.65828490      -0.12768206       0.10111771       1.06537553
O        1.80386758      -0.61085290       0.16418548       1.50110318      -0.48527186      -1.02853315
C        1.54321909       0.18258163       1.14987445      -2.63943025      -0.49211016      -0.61252175
O        0.42215699       0.69336224       1.33057165       0.29831057       0.26005620       0.11916679
H        2.28612447       0.24383368       1.91670871       1.12716616       0.23408391       0.49260993
H       -0.59687865      -0.07390491       0.48118189      -0.30258422       0.18674928      -0.23467694
10
Properties=species:S:1:pos:R:3:forces:R:3 reference_stdout=/dodrio/scratch/projects/2022_069/sander/mlip/learning/psiflow_internal/000/task_logs/0000/task_2928_pyscf_singlepoint_pre.stdout reference_stderr=/dodrio/scratch/projects/2022_069/sander/mlip/learning/psiflow_internal/000/task_logs/0000/task_2928_pyscf_singlepoint_pre.stderr reference_status=T CV=0.66476 energy=-10320.99565367211 identifier=90 pbc="F F F"
O        1.19034776      -1.45185394       1.12535539       2.42114766       2.11576044       0.31157525
C        0.27019467      -2.17505919       0.68020600      -3.29864824       0.83162937      -1.27066710
O       -0.68623035      -1.79912652      -0.07980861       1.27169799      -1.05629695       0.62959657
H        0.25702384      -3.14088757       1.15388250      -0.15675361      -1.13268804      -0.03246738
H       -0.73137693      -0.49374118      -0.69292676       0.22161197       0.35164561       0.22039686
O       -0.75585192       0.50460470      -1.09373913      -0.47496045      -0.11221765      -0.38231822
C        0.25284252       1.22410484      -0.70632225      -0.94237013      -3.12025523       0.57034648
O        1.12178730       0.82618808       0.06884143       1.32753049       0.52217461       0.68073102
H        0.25157078       2.15838062      -1.14981813       0.26895246       2.51303091      -0.85647602
H        1.22878057      -0.42732076       0.67725334      -0.64108331      -0.91301672       0.13586216
10
Properties=species:S:1:pos:R:3:forces:R:3 reference_stdout=/dodrio/scratch/projects/2022_069/sander/mlip/learning/psiflow_internal/000/task_logs/0000/task_2766_pyscf_singlepoint_pre.stdout reference_stderr=/dodrio/scratch/projects/2022_069/sander/mlip/learning/psiflow_internal/000/task_logs/0000/task_2766_pyscf_singlepoint_pre.stderr reference_status=T CV=0.752808 energy=-10321.04972319379 identifier=36 pbc="F F F"