304
Lattice="19.30210576295165 0.02430474465756224 0.15664200827183025 0.04001151095589542 13.379399000286291 0.21588058285872874 0.18423276000382807 0.27762677036706246 14.430449986592542" Properties=species:S:1:pos:R:3:forces:R:3 continue=T energy=-56983.66475883554 stress="0.006322934273277345 -0.0019221731300524542 0.0012478754682687227 -0.0019221731300524542 -0.0023407129040476384 -0.0012068809959381976 0.0012478754682687227 -0.0012068809959381976 -0.0004002995057185146" free_energy=-56998.686554269 reference_stdout=/dodrio/scratch/projects/2022_050/test_psiflow/evaluate_dataset/psiflow_internal/000/task_logs/0000/task_0111_cp2k_singlepoint_pre.stdout reference_stderr=/dodrio/scratch/projects/2022_050/test_psiflow/evaluate_dataset/psiflow_internal/000/task_logs/0000/task_0111_cp2k_singlepoint_pre.stderr reference_status=T pbc="T T T"
Al       8.96583857      -7.13426566       2.99385555       0.73082430       2.41229093       0.96713184
Al       9.21555015      -3.65061024       3.05651424      -0.24097615       0.18314123       0.82246768
Al      -0.27557198      -3.66545880      -0.59351275      -0.13317081       1.07785075      -0.09277724
Al      -0.27557286      -6.97869222      -0.67422008       0.03410980       0.70674129      -0.12077038
O       10.27105316      -6.54058510       4.70350723      -0.23674617      -1.71851777      -0.38741745
O        9.19528956      -5.38763590       2.37311142       1.94919665      -0.66197890      -1.45001847
O        9.22233395      -1.88522916       3.96150025       0.47312364      -0.50727766      -1.31155376
O       17.09172104      -5.96383866       5.92014371       1.71474853      -1.41332369       0.71418566
O        7.38210913      -6.44353855       3.86265604       0.06073820      -1.86778986       0.51268469
O        0.65814562      -6.06122833       5.24395413      -1.32168442      -1.31737062       0.36719881
O        7.47438361      -4.23349896       3.93098749       1.14003854       2.50924878       0.05905104
O        8.04699106      -2.96838599       1.61482161       1.43210765      -1.68221070       0.91025801
O        1.10021178      -3.09294237       0.58114400       0.99497535       0.13675544      -0.19080107
O       10.13340403      -4.30075855       4.62209290      -0.52915981       0.38648620      -0.13600365
O       10.96373062      -3.18065038       2.40449219      -0.07414291      -2.33138036       0.34911521
O       17.55323998      -3.35680739       0.96619279       0.50881570       1.26748711       0.29064215
O        0.83485643      -3.78021419       5.42049655       0.56458139      -0.78125804      -0.22761772
O        7.89102644      -0.70745713       1.71214178       1.13728026       0.62415128       1.20466888
O        1.04508954      -0.98286023       1.18165977       0.64796175       1.76740627      -0.57024964
O       17.86799544      -1.12715181       1.39846517      -0.24891983       0.77804673      -0.36344963
O       10.63207167      -1.06542368       1.94633977       2.13751763       0.10709674       0.37682811
O       17.37730995      -3.70601204       5.78331736      -1.10327896      -1.40280890      -0.41519000
O       -0.51683715      -1.67773169       6.07054325       0.33845079       2.00942423      -0.67771765
O       19.17218054      -5.20201307       0.32783341      -0.13843746      -2.27837655       1.73234619
C       14.24637003      -3.70399938       5.27172106       1.00337103       0.72216997       1.15675483
C       15.12834523      -4.79126298       5.44781458      -0.72876845      -1.23308163      -0.82712241
C       14.49829528      -6.09615363       5.30193308       0.64108714       1.93464626       0.19851232
C       13.15029545      -6.27503579       5.10447604      -1.21975560       0.90992736      -0.96495309
C       12.23879172      -5.12889054       5.03356858       1.89591516      -2.44216818       0.49067039
C       12.83500334      -3.86218791       5.13443977       1.03581270      -0.80844797      -0.09256949
C       10.77244705      -5.40792202       4.80431892       0.62766804       2.65513678      -0.46433818
C       16.68727518      -4.79862879       5.70656320      -2.14278170       1.90285714      -0.13149240
C        6.86938194      -5.30680359       4.14465566       1.68883130      -0.56226019      -1.13330893
C        5.48560706      -5.19894331       4.51314556      -1.83437169      -1.29720752       0.01547187
C        4.94911290      -4.13220078       5.22869063      -1.91798654      -1.14135135      -1.33852463
C        3.54724173      -4.04399485       5.30740767       0.48776710      -0.36147296       0.78006864
C        2.69860027      -5.07943207       4.84574964       1.35961180       0.80512559      -0.29443761
C        3.26094142      -6.20338674       4.16866675      -2.51586577       1.08246022       1.57240042
C        4.60856321      -6.22573218       4.02706441       0.31866101       0.58246392       0.78951539
C        1.29363909      -4.98150942       5.21720138       0.39761908       1.29402141      -1.07659759
C        7.44772165      -1.87495145       1.52418006      -2.29916855       1.89231613      -0.99815220
C        5.94503746      -1.87879897       1.14041840       1.28859329      -1.00571125       0.13722236
C        5.21715358      -0.68658392       0.99242802      -2.31985565      -0.40932840       0.85166564
C        3.78451737      -0.80651497       0.98016475       2.91066178      -2.46475738       0.02232952
C        3.22605492      -2.09962064       0.98801148      -1.12057117       0.86022125       0.06354276
C        3.95093240      -3.30337098       0.98854196       1.31581202       0.91940650       0.65866731
C        5.35869988      -3.16633413       1.12601817      -2.08420117       0.97341047      -0.47066515
C        1.73112004      -2.00393790       0.94052254      -1.21826333      -3.06384760      -0.69333504
C       11.46784778      -2.07607171       2.07802466      -2.68916379       2.08014140      -0.96688656
C       12.90778250      -2.02340696       1.70632245      -0.86633996      -0.76981457       1.76319737
C       13.58442506      -3.24015415       1.70620856       0.63179928      -2.88141085      -0.88057050
C       14.96330799      -3.22891250       1.44726208      -0.76100597      -0.37830392       0.67067334
C       15.63798163      -2.04447785       1.34514292       0.81771834       2.85187813       0.21287604
C       14.93189287      -0.74425488       1.37754275       1.76576385      -0.26202680       0.31496119
C       13.60381674      -0.81087634       1.72033265      -1.96554269       2.02986656      -0.55540769
C       17.15642674      -2.16993723       1.29556267      -1.59309266      -1.13442428      -1.46139766
H       15.60375794      -4.11127667       1.42394108      -0.40865837      -0.17837904       0.05829720
H       13.16957751      -4.34069690       1.82975170       0.05273230       2.64146160      -0.16406416
H       14.74391175      -2.71300674       5.47494775      -0.92299988      -0.58831781      -0.57013908
H       12.21402675      -3.01077243       5.02991449      -0.64079866       0.97060386       0.05625626
H        9.87730040      -5.67655839       1.68153174      -0.75378785       1.25131898       0.60175748
H        8.59039469      -1.77703705       4.65171571      -1.17192022      -0.26739526       1.42589844
H       -0.46843683      -1.43687045       5.11307018      -0.04974314      -0.81509736       0.51226560
H       18.99954001      -5.22916823       1.33303620       0.32818437       0.06080711      -2.07278753
H        5.94364640      -4.04640929       1.24900588       0.75558300      -0.53642729       0.09422734
H        3.48841744      -4.28420810       1.03896122      -0.27242794       0.08457285      -0.08693775
H        3.19095090      -3.23476470       5.95581751      -0.44485436      -0.21702838      -0.46864529
H        5.49625983      -3.37430841       5.69347659       1.30702708       1.11412645       0.54901644
H        3.02333325      -0.09792994       1.06982998      -0.58470541       2.00382848      -0.05079575
H        5.60980225       0.30592890       1.16193936       0.65093806       0.07469724      -0.29163665
H        4.87565519      -7.18335280       3.71136449       1.78680165      -1.20233432      -1.01964046
H        2.55762550      -7.05423914       3.97954880       0.81926152       0.61302097      -0.22941595
H       12.80424145      -7.27741147       4.78256529      -0.13565810       0.47281459       0.64829754
H       15.13457918      -6.93137091       5.39724325       0.67245357      -1.11697780      -0.11398575
H       12.94336228       0.12308027       1.93960302       1.25082584      -1.40035504      -0.70063081
H       15.38808884       0.30297469       1.16059223      -0.30288060      -2.08426133       0.75952861
Al       9.38276834      -0.19903201       3.21279804      -0.77622330      -2.51192530      -1.40650255
Al       9.31245034       3.04309275       3.13963737       0.33679037      -1.01227424      -1.80255737
Al      -0.34437844       3.01406626      -0.04572793       0.18173073       0.28193074       0.16281409
Al      -0.35106784      -0.41220967      -0.18270448      -0.82133588       0.70991866       1.28848016
O       10.75440166       0.30575314       4.24236020       0.00703660       0.82131428       0.80464788
O        9.43014964       1.27587209       2.25140955       0.01792316       2.86352471       0.83554534
O        9.09869176       4.63042995       3.93374472      -0.22149695      -0.02513254      -0.47412586
O       17.33998633       0.53027042       5.77469807       1.02598542       0.59759590       0.78640898
O        7.75693466       0.25234130       4.40481637       0.63167947       1.62460873      -0.74773291
O        0.81006262       0.69618947       5.54421223      -0.24213880      -2.69202543       0.04617496
O        7.71610336       2.56060654       4.08311241       0.81859817      -0.22589097      -0.34351586
O        7.98663565       3.67877830       1.53973356       0.63473548       0.71835496      -0.05981415
O        1.26137404       3.60967392       0.80108133       1.13500535       1.28072006       0.06402304
O       10.48224691       2.51711198       4.61246221      -0.66174955       0.94597732       0.21521832
O       10.99476627       3.59930409       2.37342798       0.30742374      -0.45452736      -0.10464596
O       17.95061816       3.96776808       1.61195836       0.53479464      -2.03340440      -0.49060869
O        0.99293532       2.83224099       5.51422730       0.18966875       2.57881718       0.18468030
O        8.12898215       5.91913366       1.67988201      -0.38091668       0.51093172      -0.90980343
O        1.35152852       5.91841168       0.44118146      -0.87391135      -0.67182108      -0.17311753
O       17.84084927       6.09019527       1.05131695      -1.53111056      -0.29055782       0.79519342
O       10.80573166       5.82256339       2.19011762      -0.22636868       0.60209738       0.54736682
O       17.26102474       2.85263283       5.66257688       2.03560732       0.83304109       0.52120482
O       -0.77950788       5.04901982       5.81857435       0.11275060       1.12089976       0.45684033
O       18.99708003       1.32088620       0.94752942       0.76027629       0.04290503      -1.96026422
C       14.52221581       2.70728573       5.61690453      -1.67004321       0.46125080      -0.50174208
C       15.32131774       1.59625282       5.38707843       0.13358785      -0.98392886       0.55541180
C       14.76811378       0.31539914       5.10568257       0.45719617       0.38310057      -0.72478581
C       13.40236035       0.29312340       4.93079118       0.72801923      -0.00193656       0.29144434
C       12.59510027       1.38425677       5.15462296      -2.03781230       1.33054496      -0.50053623
C       13.08500039       2.60557102       5.49316531       3.77052975      -0.30523316       0.77796857
C       11.15433638       1.46303549       4.67729356       1.28974463      -3.30208141      -0.11776373
C       16.79768149       1.69009176       5.64682442      -1.82478816      -1.71949787      -1.02523260
C        7.21002102       1.43998191       4.39720592      -1.12485206      -2.01905970       0.96668138
C        5.73898313       1.45734444       4.80378590       1.86857765      -2.37109671      -0.94959486
C        5.12941289       2.66816772       4.84204339      -2.88178983       0.21974295       0.21694507
C        3.74495392       2.83549456       4.92223744      -0.06543407      -2.85698228       0.74505947
C        2.99372625       1.62555026       5.09692678       0.52365971       0.06653656       0.31675839
C        3.65175423       0.37148951       5.11216204      -0.22837311      -1.75533443      -0.48205977
C        5.03713002       0.22767662       4.87615248      -0.91566658       1.05540553       0.07126739
C        1.54247738       1.69133603       5.43616205      -0.23008650       0.50040150      -0.95038007
C        7.46837604       4.88259675       1.36746648       1.86562499      -3.32608626       2.29734512
C        6.03302713       4.89888946       1.25566791       0.15428471       0.40245584      -0.22962010
C        5.39380608       6.10140679       0.95009216       1.14472001       0.47464728      -0.01278815
C        4.01809866       6.20423065       0.90225055      -0.03910700      -0.24669377      -1.10482419
C        3.29363790       4.97908107       1.10165805       0.41300507      -1.42171217       0.08414553
C        3.95571152       3.78182827       1.50261701      -0.49145869       0.13079306       0.25490381
C        5.36298180       3.75388959       1.63812547      -2.04030369      -2.08351931       0.24467082
C        1.85343742       4.76289016       0.74815501      -0.44362537       1.37825898       0.33551408
C       11.52054280       4.75755382       2.21863215      -1.19348921       0.94007046       0.03790886
C       12.99388940       4.90723867       2.05711571      -0.50775692      -2.56385284       0.18369814
C       13.77671949       3.76695525       2.31115976      -0.41343393      -2.49206095       1.70332975
C       15.15830109       3.71771353       2.06756206      -0.15050211      -0.13799626       0.72934129
C       15.81401514       4.88951594       1.65084042      -1.64723547       0.84021549       0.27702353
C       15.02146657       6.03398270       1.42871496       0.36862680      -1.00766271      -0.06183966
C       13.62276198       6.00124349       1.57031732       1.82865150       2.22697814      -0.73496995
C       17.25041385       5.00138723       1.44335609       1.76143617       0.35214603      -0.64984534
H       15.74847233       2.83025915       2.33304632      -0.20825783       0.17601414      -0.15214041
H       13.24704097       2.86980003       2.90827792       1.24282148       1.85788288      -1.77897469
H       15.04796870       3.64941218       5.74302761      -0.21259322       0.17638335       0.33118948
H       12.35251530       3.32872133       5.66492318      -0.59354589       1.87123359       0.24544678
H        8.77255880       1.35083689       1.55445144      -0.41029719      -0.30098467      -0.79605319
H        9.11619431       4.35851823       4.84549094      -0.09051672       0.64430976       1.41474808
H       -1.69529848       5.16022046       5.44585010       1.02219099      -0.41386228       0.16968819
H       18.53410155       1.15173831       1.74635413      -0.83761971       0.05597858       1.78793499
H        5.80973305       2.78160999       2.01889129      -0.07970266       1.51137734      -0.68645271
H        3.25106198       2.89721125       1.67539880       1.26607557       1.01581774      -0.14582887
H        3.20735390       3.74808613       4.99857184      -0.17699630       1.01112445      -0.13045984
H        5.70773558       3.49977918       4.76314057       1.82738806       2.51527699      -0.27631442
H        3.71423784       7.16450432       0.41651304      -0.81487881      -1.02313973       0.81664156
H        6.11389936       6.93005590       0.71558509      -1.02957623      -0.44328856       0.19283738
H        5.49214274      -0.77060508       4.72536971      -0.08228971       0.72449836       0.23772987
H        3.10034031      -0.61336716       5.30105261       0.22348493       1.61595286      -0.48869681
H       12.92003526      -0.51642804       4.52198182      -0.95786558      -2.30305812      -0.75945405
H       15.42062170      -0.55897417       4.81919997      -0.67102198       0.97130320       0.56869464
H       13.12235838       6.90671509       1.29157730      -0.73590377       0.40089518      -0.07085858
H       15.65303469       6.83778300       1.08376890      -0.53087474       0.91037576      -0.20072244
Al       9.24272303      -6.68821070      10.51622305       0.17890406       0.04515783       0.99294263
Al       9.27195184      -3.36104764      10.84296508       0.92746794      -0.47879652       0.88930711
Al      -0.38881581      -3.37620114       6.71601002      -0.45573373       1.91620785      -0.50396608
Al      -0.53784836      -6.62033633       6.70259024       0.50516370      -1.89871149      -2.84828218
O       10.81454777      -6.22758170      11.70301506      -0.22417553      -0.66593582      -0.53987514
O        9.22092858      -4.96376181       9.92932900       0.00662728       0.69272621      -0.63487792
O        9.28666339      -1.69741575      11.50216948      -0.30088697       1.15792005       0.64277738
O       17.65205327      -6.14900349      12.96087429      -0.52371216       0.33981245      -1.07134791
O        8.00970036      -6.41331955      12.03142628      -0.57231835       2.29526510       0.58028466
O        1.04516706      -5.93832195      12.20814718      -1.41619150      -3.27075508       1.10709242
O        8.17887149      -4.10060196      12.27675808      -1.20905621      -1.42383024      -0.18183871
O        7.81059786      -2.70843002       9.87703664       1.44952482      -4.04653204       0.23264577
O        0.97515666      -2.64341668       7.97287765      -0.44571568      -1.08796136       0.32530680
O       10.78010568      -3.97724607      11.90479777      -0.82976756       0.79414801      -0.69136969
O       10.78303441      -2.63867651       9.62489142      -1.85611962      -2.98051043      -0.24780963
O       17.52229261      -2.96251525       8.20618485       1.49460192      -2.25424623      -0.46753869
O        1.21491130      -3.74136852      12.47797000       0.04814185      -0.48701480       1.14612383
O        7.62141152      -0.50270763       9.73518265      -1.13223730      -1.31908606      -1.39441476
O        1.26982752      -0.37007337       7.70311496      -0.01163938      -2.23385584       1.35284722
O       17.54113112      -0.66008058       8.30620050       0.67226434      -0.92183003       0.23643969
O       10.62177460      -0.40983074       9.64995557      -0.31155036       0.57805602      -1.18704808
O       17.66094631      -3.89085645      12.88449295       0.86234087       1.15023399       0.05569576
O       -0.43994769      -1.65774298      13.18491803       0.70370739       0.00703300       0.68173937
O       19.21796761      -4.99686751       7.48252817      -1.20663526      -0.25417568       2.64404504
C       14.89906170      -3.72251494      11.99808042       3.63192569      -0.26413253       1.74039169
C       15.66053713      -4.97314654      12.19442240       0.16687438       0.89604340      -0.82459810
C       14.99532109      -6.17981156      11.91242969       0.94735388       0.47796400       0.32825379
C       13.60963742      -6.10308888      11.79714226       0.43154684      -0.92999071      -0.55741315
C       12.86347079      -4.93770028      11.92866848       0.01967100      -1.01727453      -0.52168664
C       13.55680120      -3.70846085      11.95312546      -1.59500711      -1.14226820       0.10474726
C       11.37394862      -5.10092862      11.81275510       0.82414558       1.42610618       0.77351850
C       17.13168758      -5.00923577      12.66174921      -1.41070168      -0.59006616       0.15268137
C        7.49180926      -5.23038591      12.28908348       1.82940586       0.24469191      -1.53313659
C        6.02346027      -5.13074277      12.32361516      -1.37022685      -2.49946367      -0.42528363
C        5.36376945      -3.94499604      12.39347780      -0.19954950       3.63582245       0.13264939
C        3.95596661      -3.77695892      12.35701315       0.96262058      -0.34019297       0.68668360
C        3.20962779      -4.91017780      12.11428394      -0.53093387      -2.19823629       0.82581063
C        3.82740776      -6.19996387      11.89097689       1.54546040       1.91368097       0.48790800
C        5.20220372      -6.32736017      12.02841429       1.45076718       1.57321495      -0.46854451
C        1.74174326      -4.94232774      12.37920160       0.56514549       4.30193517      -2.12292044
C        7.19693318      -1.74069240       9.48735296       0.28593292       3.08722921       0.35248130
C        5.91674865      -1.94946749       8.83961373       0.01969002       3.35389068      -0.36547514
C        5.50811104      -0.80313591       8.13322232      -4.39164250      -0.84308073      -0.88886540
C        4.06288960      -0.74895918       7.75227476       2.44211984       1.20866489       1.50340435
C        3.19246657      -1.72185728       8.21556042      -1.47293112       1.32870765      -1.18070054
C        3.74119798      -2.87891014       8.65384039      -0.14105536      -2.17883629       1.38303712
C        5.03517035      -2.97799184       9.11406146      -0.38625223       0.16448994      -1.88039906
C        1.66762723      -1.60307233       8.00864302       1.04047359       2.65326245      -1.42535131
C       11.24391482      -1.50864422       9.48160904       2.68254526       2.10296457       0.98859541
C       12.80466575      -1.45972000       9.37986629      -0.58283262       0.19629243      -1.37191144
C       13.40329282      -2.63507632       8.83852703      -3.38214454       0.79579351       0.81003125
C       14.72302046      -2.78771437       8.62241013       0.77690053      -1.56705818      -0.23529041
C       15.57138029      -1.79433729       9.04486873       1.51896415       0.54024178      -0.30909959
C       14.99312956      -0.59448949       9.52799373       2.08653162       1.79340835      -1.40541035
C       13.63032926      -0.32016533       9.56266946      -1.26145118       0.75193306       0.21035585
C       17.07280873      -1.87411935       8.52997709      -3.07731812       4.61706348       0.74011113
H       15.03534567      -3.70720464       8.12000516       0.38257504       0.23612345       0.10586981
H       12.61991351      -3.35017162       8.57363896       0.54113138      -0.45553935      -0.10767832
H       15.37466742      -2.71353530      12.13876030       0.06562124      -1.12917666      -0.24375551
H       13.06270527      -2.76945598      11.97582856      -0.75684798       0.70626512      -0.08450908
H        9.36370042      -4.86450708       8.96801744      -0.05855996      -0.13032563       0.12995128
H        9.39002085      -1.61081193      12.45308695       0.21802854       0.03562264       0.74778844
H       -1.21766920      -1.74244896      12.61671448      -0.29644102       0.33639134      -0.26392427
H       18.85100963      -5.12214307       8.38539194       0.36891322       0.60927590       0.37081995
H        5.38539770      -3.94524589       9.26295781       0.87965725      -1.63817542       1.19105592
H        3.11729153      -3.76406833       8.68412317      -0.30062369      -0.18616794       0.32802291
H        3.53438507      -2.83322984      12.75983659      -0.02259486      -0.58966507      -0.78947323
H        5.90455586      -2.95106979      12.43944386      -0.03612400      -1.32659163       0.33944684
H        3.63273235       0.13532100       7.28131259       0.29847733      -0.03526628       0.27671808
H        6.12779105       0.04980433       7.92210009       0.40212416       0.13641914      -0.04090574
H        5.81646724      -7.17357727      11.67537036      -0.64460286      -0.06261562       0.63839776
H        3.26713045      -7.04638442      11.61844294      -1.04157248      -0.94181727      -0.25859078
H       13.10968921      -6.99076747      11.45830376      -0.57298838      -0.53793807       0.24022744
H       15.61883561      -7.11268169      11.80160517      -0.89864999       0.81737741       0.26064972
H       13.19705416       0.78404482       9.65866877       0.95350088      -2.54346194       0.05622797
H       15.72613732       0.26162059       9.44691100      -0.74624424      -0.66808989       0.72999846
Al       9.07136507       0.01703727      10.67558152       2.24057208       0.27767762       0.47446473
Al       9.23346014       3.44623960      10.45336201       0.36701986       0.06478512       0.99965218
Al      -0.41633356       3.36658112       6.58125317      -1.12482944       0.36064404      -0.30933459
Al      -0.45456739       0.04978946       6.90808703      -0.12273008      -1.27988959      -0.81671715
O       10.72747460       0.63101473      11.87630237       1.39879798       1.43645230      -0.40316289
O        9.01878310       1.72749410       9.83353686       0.18558687       0.38261617      -0.27211787
O        9.39216010       5.03214900      11.43254786       0.21198747      -0.80249998      -0.37844533
O       17.45193036       0.79563432      13.35271080       1.38186418      -3.91126835       0.68050421
O        8.08318349       0.78332720      11.96049438      -1.71481898       0.75840247       0.57135316
O        1.14106633       0.47191788      13.21694002       2.05853745      -0.10712605      -1.79779980
O        7.92261081       3.03834567      11.78196154      -0.44258922      -0.30126749      -0.16364610
O        7.79847981       4.16920528       9.37534767       1.07908591      -1.99625915       0.10170308
O        0.80288267       3.86178757       7.91361277       0.62804856      -0.05345684       0.17371043
O       10.92646240       2.85275750      11.29393944      -0.13597486      -0.56351644       0.19060618
O       10.44610794       4.09208652       9.18450201       0.12741103      -0.81443967      -0.74561534
O       17.46976740       3.92039150       8.01326049      -0.67302898      -0.13952298       0.58462982
O        1.09013953       2.66733396      13.03364285       0.59701483      -0.05250502      -0.88037921
O        7.62753693       6.35096320       9.76317411      -0.93144338      -0.49412801       0.00515609
O        0.99114340       6.11609506       7.96305808      -0.43623396       0.12485998      -0.51198587
O       17.68073821       6.09982632       8.32580137       0.08158934       2.68482634       0.80685234
O       10.60481311       6.34693037       9.33891140       0.21272435      -0.94562713      -0.14543755
O       17.49326029       2.91460042      13.74173441       0.55029479       3.01292793       1.04405565
O       -0.09038707       4.94557408      13.30205046      -0.62595362      -0.62380264      -0.39449776
O       18.87351140       1.74973466       7.70960011       0.96168110      -0.21436163      -1.92497943
C       14.85657524       3.12269107      12.64455408      -2.97535176      -0.49297513      -1.32642811
C       15.47761638       1.92986213      13.03508354      -1.12671405       0.55888588       0.28924707
C       14.80413347       0.70341650      12.98849764       0.93030078       0.52614802       0.10778322
C       13.53808614       0.64187881      12.51823972      -2.13624442      -1.78384385      -1.04749579
C       12.88343403       1.77044698      12.05864170      -0.11148767       2.30809388       0.37368622
C       13.50961477       3.07614728      12.11248543      -0.28548606      -1.49491611       0.55336983
C       11.43090822       1.72048535      11.69015780      -1.84696701      -0.74120899       0.41721551
C       16.84793018       1.86616420      13.51283213       0.71963589       0.49495642      -1.77109015
C        7.39032448       1.88681556      11.91679290       0.31039028      -0.34659347       0.75130211
C        5.89589957       1.82669856      12.10116177       1.48155923       1.22184642       1.77370393
C        5.16340796       3.03135506      12.52771815       0.60833488      -1.02823617      -0.69436040
C        3.77940211       2.92703975      12.45278631       1.83052480      -2.28146753       0.57993447
C        3.15822688       1.62728554      12.43750913      -0.97090262       1.11244854      -0.35380593
C        3.85243477       0.48220816      12.19980531       3.76093028      -0.53802137      -0.24103940
C        5.33823966       0.57867296      12.05775840      -3.88501996      -1.66358512      -1.44925846
C        1.73325142       1.56530017      12.84077987      -2.36634377       0.52426237       1.60240880
C        7.08720984       5.19216051       9.50747554       1.12865472       0.78975450       0.03018424
C        5.63803751       4.98455272       9.33228592       0.52270994       3.10865679      -0.19390182
C        4.89995265       6.18387617       9.31429451      -1.65292944       1.03158323      -0.71217763
C        3.54579622       6.15428825       9.02634686      -1.66342005      -3.04748510      -0.54716987
C        2.79056095       4.92441721       8.79199166       3.42904043      -1.18201694       1.05576857
C        3.61411111       3.72046936       8.90429480      -0.39841406       1.10759893      -1.12350223
C        5.04032933       3.79690963       9.01753955      -0.92887588      -2.11767128      -0.62063195
C        1.40369886       4.93160698       8.20423647       1.16243491       0.82157756       0.39194619
C       11.08080259       5.16613718       9.05737166       1.23384627       1.09472439      -0.49649240