304
Lattice="18.172706585382787 0.029611372851132217 -0.03602368198486452 0.07042132488188935 13.26496753034851 -0.02306658683242706 -0.027789066070884078 -0.024716108631126013 20.83663064414703" Properties=species:S:1:pos:R:3:forces:R:3 continue=T energy=-87.97047489492252 stress="-0.0069576053892635 -0.00082148415472583 -0.0009129064941677 -0.00082148415472583 -0.010692168678156 0.0026136250371203 -0.0009129064941677 0.0026136250371203 -2.721683017228e-05" free_energy=-56996.758737346 reference_stdout=F reference_stderr=F reference_status=F pbc="T T T"
Al       8.54911074      -7.27325876       4.59840483      -0.08934934       2.48133307      -0.97513859
Al       8.68034468      -3.89037232       4.61151412       0.13832403       0.11425467      -0.96303522
Al      -0.36351203      -3.80104181      -0.58481253      -0.58273265      -0.26763519      -0.23428280
Al      -0.30338573      -7.09667145      -0.47585546       0.03395840      -0.68980139      -0.02488960
O       10.04282446      -6.73857833       5.75531958       0.47018590      -1.28394976      -0.74219891
O        8.63671832      -5.60225583       3.68276858      -0.12780453       1.52119303       0.86811711
O        9.20573893      -2.09758133       5.29593827      -1.16331713      -0.01293308       1.11907095
O       16.49903156      -6.64221401       8.32940687       0.28958225      -0.05893343       1.44792546
O        7.49272680      -6.27515714       6.07707202      -1.16430395      -0.81883788      -0.28855048
O        0.89510756      -6.72042179       8.16163314       1.13354969       1.28728724       1.53305130
O        7.10406275      -4.16538987       5.56533050      -0.17168857       1.06305051      -0.15217738
O        7.60889126      -3.04236965       3.27566632      -1.62787753       0.21715998      -0.46137012
O        1.16290778      -3.35648074       0.45632263       0.35883296       0.13291481       0.30645338
O        9.86190819      -4.51134263       5.86293279       1.67412082      -0.62867321       0.01090223
O       10.17128255      -3.44415392       3.07229102      -0.56440122      -0.94584098       1.16708421
O       16.52925199      -3.05557521       0.63555602      -0.48270534       0.94855886      -0.06705449
O        0.79690797      -4.48794773       8.27334422      -1.44040033       2.85998485       0.90376461
O        7.11923093      -0.86975766       3.50720888      -0.10548607      -0.55371360      -0.26085111
O        1.01132798      -1.10589641       0.56049375      -0.01594366      -0.22198966      -0.52660495
O       16.37696220      -0.77134358       0.34424473      -0.96624504      -1.27943792       0.93888145
O        9.91928667      -1.17797090       2.86304412      -0.08115997      -1.01204133      -0.05345268
O       16.20090552      -4.45418141       8.85643336       1.79628645       3.18325806       1.23078597
O       -0.38546747      -2.13805026       8.81426341       0.38115775      -1.34906123      -0.90547132
O       17.92095554      -5.36391652       0.24762539      -0.60584344      -0.96249903       0.39465041
C       13.77877739      -4.38834835       7.55117407      -2.03085186       2.90042800      -0.75169651
C       14.40899081      -5.53303571       7.78528891       1.43625178      -1.83495235       1.49828262
C       13.66553698      -6.70140065       7.60799977       3.48655767      -1.97605329      -0.36335712
C       12.47593123      -6.79222403       7.00952251      -2.30946971      -1.07759783      -1.29200655
C       11.85293200      -5.55363052       6.65866251      -0.22204412      -2.19242749       0.37113189
C       12.44403683      -4.37644605       7.00114790       2.07159372       0.53501190       0.04472418
C       10.56031281      -5.62611004       5.99783337      -2.59490340       1.76741953       0.36792273
C       15.87589929      -5.52896317       8.40942424      -3.51621605      -2.64980134      -2.61469579
C        6.70455159      -5.26084636       6.08785453       2.65285005      -0.39923941      -0.72538176
C        5.38859415      -5.27875912       6.69109653       1.70436004       1.32108633      -1.03016823
C        4.68344441      -4.09042986       6.77088227       1.12479065       1.79376533      -0.29409075
C        3.41507349      -4.15396525       7.19591182      -3.49645243       1.06771972       0.88349977
C        2.85445504      -5.40239222       7.54929834      -2.57454280       3.14074885       0.52692985
C        3.62161798      -6.46314667       7.51266918      -0.82209749      -6.67358611       1.84785469
C        4.88675551      -6.47244247       7.03621547       1.85725812      -2.35783900      -0.78786393
C        1.41954310      -5.52551827       8.06529613       1.06837083      -3.39230143      -1.19102783
C        6.81938228      -2.03917986       3.04443721       2.86216227      -0.19406013       0.66560510
C        5.60858894      -2.19940501       2.22385119       0.53008566       2.59054225      -0.25875743
C        5.21339372      -1.12898277       1.33658312       1.64114147      -1.30321990       0.40270630
C        3.96694188      -1.06744891       0.85403167      -3.31868552      -0.31955591      -1.44261095
C        3.03435984      -2.07290202       1.28559740      -0.36959474       1.21776022      -1.76978019
C        3.43220400      -3.02175145       2.14983985      -1.01624472      -1.79914187       1.87582773
C        4.71541303      -3.11653611       2.67289731      -0.44759993       0.41482403      -0.73460248
C        1.62656095      -2.22333775       0.71983817       0.81052732       1.70501846       0.43150786
C       10.50391226      -2.31781310       2.66162030       0.36249841       1.91367926      -1.16373621
C       11.80026734      -2.22887908       1.86650777      -0.28201824       1.78563892      -0.18250679
C       12.63226683      -3.27438573       1.95984360       1.36058566      -3.13263446       1.56391452
C       13.97424746      -3.15622652       1.67936220       0.27142390       1.93800382      -1.46658878
C       14.49916540      -1.94114211       1.10614235      -0.48774291      -1.23401063       0.49646529
C       13.66113387      -0.81957625       0.91601429       0.13459114      -1.29838067       0.00501803
C       12.35720890      -1.04603071       1.28764339      -3.33595265       1.14380486       0.82770546
C       15.88326366      -1.91761266       0.63804792       0.97092918      -0.87239280       0.81393383
H       14.59298363      -3.99544732       1.84406386       0.96523810      -0.75741827       0.03937862
H       12.33133328      -4.22177745       2.47298411      -0.08185577       0.74166707      -0.51867249
H       14.35548866      -3.49797729       7.77874462      -0.32949348       0.58253500      -0.13310736
H       11.93947364      -3.50893728       6.62757022      -0.10864355       0.91641700       0.21857257
H        9.31451063      -5.44022481       3.00424494      -0.11929750      -0.62409309      -0.11888734
H        9.02279697      -1.86610132       6.25076970       0.20267128      -0.77602817      -0.99960890
H       -0.19979319      -2.42850557       7.87263468      -0.12890356       1.18571797       1.19435131
H       17.36451973      -5.44603853       1.04174810       0.09399307       0.19272321       0.09140679
H        5.14060262      -3.74555953       3.40312094      -0.35355300      -1.36899820       1.02105843
H        2.56477504      -3.56832680       2.51976944       0.48034631      -0.93874792       0.18880852
H        2.71615617      -3.27550075       7.31853550       0.98593549      -0.63567508      -0.23408443
H        5.16251162      -3.11762701       6.52558167      -0.24241476      -0.71843649       0.05915707
H        3.59377814      -0.35925429       0.06154902       0.68688342      -0.42605017       0.83083803
H        5.95838837      -0.54605020       0.84473998       0.76803096       0.83628306       0.18988768
H        5.59409840      -7.33053204       6.74901778      -1.42389011       0.70689255       0.99754703
H        3.14695747      -7.43193431       7.96519450       0.80628412       1.41804083      -1.09982557
H       12.04567456      -7.84946178       6.72292993       0.57918727       2.28442453       0.52142336
H       14.30314883      -7.58937748       7.58303326      -0.25195477      -0.39685187       0.75019486
H       11.53451333      -0.29909725       1.25769888       0.89816327       0.30586245      -0.28756429
H       14.05037664       0.08705080       0.44128379      -0.29345314      -0.14430554       0.22420191
Al       8.89888025      -0.57450178       4.36840849      -0.67355954       0.83750842      -1.23139572
Al       8.88777551       2.71443716       4.47852882      -2.00869972       0.31890307       0.31905747
Al      -0.27641609       2.78376717      -0.37773123      -0.79289814       0.50711204      -0.32142488
Al      -0.34536434      -0.56230012      -0.66654710      -0.08920963       1.21445913      -0.38824382
O       10.55695121       0.08865833       4.94177307       0.39627424       0.90369453       1.88819052
O        8.82272599       1.11898712       3.51713337      -0.31115418       0.36854156      -0.06243625
O        8.48857016       4.42935802       5.34576969       0.77474592      -1.63957214       0.58798098
O       16.75678420       0.12851938       8.14881278      -1.63226023       2.11562641      -0.55133399
O        7.60601849       0.13641017       5.95999850       2.45895643      -3.41102401      -0.67937746
O        1.29649906       0.01143304       8.74726000       0.05060138       0.57027858       0.06775762
O        7.33019029       2.27504579       5.55466629       0.87124564       2.47256919      -1.07209973
O        7.61862916       3.39077689       2.96850903       2.15236425      -2.03080072       0.59582172
O        1.11888448       3.28784879       0.68603896       0.92527002      -0.28408307       0.86603898
O       10.01893677       2.04628744       5.99909872      -0.37480832      -0.08601506      -0.75815560
O       10.27737598       3.39087090       3.60834558       1.08437237      -0.30251538       0.10348125
O       16.71425352       3.50976165       0.88933646      -0.34997543      -2.62688287       0.72813358
O        1.35654914       2.31187215       8.87755894      -1.03217043       1.01456778       0.25298738
O        7.11650166       5.57262903       3.44503170       1.07058010      -0.70921475      -0.00168065
O        1.06376062       5.53053115       0.71003944       2.26475243      -1.12444592       1.22716716
O       16.62557247       5.66910004       0.90009964      -0.26138793       2.32330396       0.28180030
O        9.94580164       5.57138510       3.15250703       1.35244851      -1.50818260       0.77491642
O       16.59453438       2.32356823       8.58386542      -1.88580065       0.29453002      -1.07317013
O       -0.20832219       4.39624997       9.15220302      -0.64779640       0.34340042      -0.76260664
O       18.01131959       1.11659499       0.23043872      -0.05001556      -0.67239661       0.56215213
C       13.72719924       2.11710236       7.78136420       0.41112523      -2.29183239      -0.87784516
C       14.73340929       1.13164182       7.48259278      -1.81103383       1.56205316      -0.75911254
C       14.36026012       0.12092891       6.54892345       1.61000192      -0.17124871      -0.09162406
C       13.20802473       0.23635388       5.81384529      -0.81990039      -0.36850415       0.87341468
C       12.23287555       1.19584969       6.18404645      -0.63933285      -2.42206740      -0.32593392
C       12.43018802       1.97911866       7.27086694       0.23763533       2.84980066       0.20803471
C       10.82094106       1.08691902       5.72019605       0.37986107      -0.37284440      -1.84942041
C       16.06354267       1.27047816       8.05945345       3.19747119      -2.71518639       1.76743177
C        7.02839813       1.20345412       6.09603058      -2.07515925       0.21789568       0.72278967
C        5.74953484       1.19962969       6.86135407      -0.73818719      -0.74561450       0.11010499
C        5.45242947       2.08838254       7.88310739      -0.63927602      -0.09594996      -0.80325077
C        4.15433201       2.17453846       8.33262548      -2.55228799      -0.53245123       1.89818708
C        3.16489559       1.11574722       8.04090583       2.99807231       1.21969603      -0.92668251
C        3.52797675       0.12154267       7.07558677      -1.98519308       0.29354942       0.67606615
C        4.76269282       0.29763462       6.46175554      -0.02460100      -1.61451157      -2.24720903
C        1.83723426       1.20198672       8.62229960       0.28044321      -2.01113432      -0.54861104
C        6.94937464       4.41425060       2.85273933      -0.43917539       2.95882287       1.47949674
C        5.68127737       4.35474710       2.20083517      -1.78992959      -3.57293128      -0.08683555
C        4.98911953       5.50074513       1.89633778       3.16018451       1.07792049      -1.21797041
C        3.71323193       5.47083306       1.51399891      -1.04864496       2.11413405       0.31300740
C        3.01927011       4.30760358       1.54960138      -0.97626981      -1.51535257      -0.35688605
C        3.61457385       3.04951613       1.82646738       2.63587700       0.70750954       1.44198422
C        5.04117025       3.03924565       2.21534685      -3.81541223       4.36256905      -1.84360209
C        1.66541563       4.39134802       1.01015929      -2.69897895       0.90599845      -1.82269391
C       10.73261146       4.51823323       3.21989240      -3.92754415       1.66970541       0.01955452
C       12.06303447       4.58743382       2.77368007       2.63093564      -1.28159275      -0.26407047
C       12.76693665       3.35613650       2.73671192       2.35653929       0.65866704      -1.62824132
C       14.13025972       3.30389878       2.22362112      -2.48157028       0.44439262       1.47707566
C       14.77599424       4.49831943       2.00795394       1.67097019      -0.36461050      -1.05349917
C       14.07356750       5.68009983       2.17478823       2.39106036       1.64815365      -0.74602163
C       12.76230522       5.77144067       2.46683716      -2.13287112       0.38642463       0.38127193
C       16.18020581       4.56228999       1.26911926      -1.51592146       0.20287727      -0.02420442
H       14.59610039       2.35926314       2.10036075       0.54249349      -0.87761168      -0.23126469
H       12.30129883       2.41139081       2.90809231      -0.59108743      -0.45502634       0.34488161
H       14.00465146       2.87780480       8.42640121       0.32475456       1.60058676       1.46695334
H       11.56632939       2.68641845       7.41137778       1.04839655      -0.43614929       0.68275724
H        8.41131685       1.18502400       2.62530755       0.16875222       0.00306545       0.78035490
H        8.23400010       4.24211628       6.26589611      -0.00070354       0.41559571      -0.25820995
H       -0.86944483       4.26602896       8.44857516       0.13074459       0.45172379      -0.49090490
H       18.17872624       0.87956441       1.17041199      -0.06292932       0.57062712      -0.69008334
H        5.53375938       2.20591371       2.55898465       1.12208364      -1.99932939       0.70203089
H        2.99284509       2.17409767       1.97415478      -0.02767929      -0.21503572      -0.40327821
H        3.79053361       2.97157909       9.08922734       0.76912755      -1.17456940      -1.22174389
H        6.21658483       2.77224627       8.11726257       0.76396353       1.16256970       0.73203956
H        3.21920471       6.43184454       1.35070486      -0.23997751      -0.30195209      -0.46672460
H        5.64367148       6.35998419       1.65246881      -0.59735174       0.07724590       0.84051201
H        4.91805626      -0.23494849       5.47154358       0.15112684       0.15783436       1.27425010
H        2.69422692      -0.66958917       6.77568373       2.00315195       1.59371894       0.44083431
H       12.95249566      -0.61594673       5.20621838      -0.25063425       0.07305511      -0.73814872
H       15.01438567      -0.74454745       6.30975007      -0.09621490       0.67569725       0.39201483
H       12.18856112       6.71907126       2.42779450       0.47274933      -0.42720716       0.21881268
H       14.72351195       6.54648103       1.96952311      -0.65077837       0.13941802      -0.00272950
Al       8.67669925      -7.04373340      15.12539413       1.21358613       0.64300579      -1.13253795
Al       8.80823775      -3.63412129      14.94061849       0.06050283      -0.59554567      -1.03285563
Al      -0.24740586      -3.77207772       9.74834792      -0.11833440       0.22586598      -0.41913170
Al      -0.36314230      -7.12270773       9.77640484       0.14010741      -0.80229226       0.06976084
O       10.25578414      -6.43034365      16.27802880      -1.76834212      -0.99050676      -0.65340782
O        8.75621761      -5.40568260      14.17614117      -0.47207138       1.07325982       1.12539141
O        8.96100292      -1.98526621      15.80988136       0.14041156       0.56066599      -3.51117565
O       16.23290978      -6.69349824      19.28426500       0.14252651      -0.17403351       0.51151533
O        7.51448126      -6.37998883      16.36786218      -0.65686884       1.12180772       0.06655457
O        0.92418330      -6.65274494      18.96902350       2.45431798       2.86884338      -0.15880135
O        7.21463414      -4.15910428      15.89578572       1.37418698       1.60703056      -0.11786245
O        7.32802294      -2.94166694      13.67810858       1.32524802      -1.15834171       0.68332867
O        1.37624523      -3.16777596      10.53135675      -0.17189417      -0.21671639       1.30859965
O       10.16854358      -4.12605801      16.25278232      -0.48841970      -1.23469670       0.14460955
O       10.09490921      -3.26281228      13.62772358       1.48017378       0.85913690       0.25652019
O       16.78936342      -3.08842166      11.06431103      -0.99706419       0.63118903      -0.71969133
O        0.97816651      -4.35638784      19.03379410       0.97957300      -0.34866262      -0.45605253
O        7.46259022      -0.68355167      13.62952440      -0.43810654      -1.00053901      -0.13131649
O        0.82593879      -1.14095564      11.34539462      -0.81102357       1.02133613      -0.21538834
O       16.22971168      -0.92929068      10.55088096       0.66871900       0.21038568      -0.99159920
O       10.29859088      -1.00936117      13.54288615       0.14471747       0.18581061       1.19126260
O       16.40536858      -4.45377009      19.03118348      -0.04005986       0.13153698       0.52234483
O       -0.72069834      -2.22755993      19.40544204       1.90227075       0.28116188      -1.30573573
O       17.91649526      -5.45461230      10.52746876       0.61508953       0.78591135      -2.63131936
C       13.98005152      -4.33437001      17.63810884       3.96404413      -1.07817300       2.05959790
C       14.43654109      -5.47288666      18.39060535      -1.76747335       0.64521421      -0.20387071
C       13.54863861      -6.46791489      18.72808259      -2.00901299      -2.22055439      -0.81170753
C       12.16621460      -6.45328269      18.25808233       1.30930846       0.41092761      -1.18872065
C       11.82556950      -5.32490172      17.45327897       0.98206365       0.02045218       0.59473434
C       12.74811092      -4.26943782      17.16879241      -2.72876150       0.64224192       0.37075500
C       10.61816018      -5.28848747      16.62681500      -0.01002950       0.88752381      -0.17423256
C       15.75280751      -5.54978237      18.98709173       1.69367504       0.28480707      -0.95629072
C        6.88254074      -5.24897932      16.36922702      -2.40026961      -2.13082688       0.88469433
C        5.43661182      -5.29597977      16.94486742       1.31088612       0.93161180      -1.31445216
C        4.63578651      -4.14153032      17.00518752       0.55843330      -1.84804330       0.52759284
C        3.39054166      -4.17445034      17.64696144       1.06459183       2.16134820      -1.53142691
C        2.89347916      -5.40691276      18.06785287      -0.91264655      -0.15891198       0.71652752
C        3.67178993      -6.56300466      17.93829924       1.70834721       3.74836206      -2.26989459
C        4.94327535      -6.48481144      17.33466802      -0.98595895      -1.80259755       2.14854913
C        1.57848827      -5.45618659      18.77079589      -3.24488435      -2.08173941       0.30038083
C        6.83783109      -1.82066353      13.40494549       3.69684792       2.00834965       1.82740298
C        5.54447331      -1.81893766      12.89024450      -3.08629203       0.99252753      -1.52327837
C        4.72442903      -0.68666130      12.65330029       3.09758915       0.39860960       1.46808578
C        3.50156963      -0.85784063      12.09160314      -0.93241921       1.91619124       0.40649515
C        2.92135863      -2.07157748      11.84513756       2.32569902      -0.91518577       1.20226168
C        3.74665368      -3.18816575      12.10995890      -1.40533541       0.82927739      -0.32850733
C        5.02193173      -3.05359712      12.59415933      -0.86162743      -0.62928083      -0.58582856
C        1.59677610      -2.12911747      11.30893375      -0.94565255      -1.39614815      -3.01492082
C       10.81449846      -2.18186780      13.44072487      -3.60398911      -0.53561267       1.00422199
C       12.14698328      -2.29460270      12.93760139       0.09372746       1.59769469      -3.32424372
C       13.06928301      -3.30480355      13.06918380      -1.84746757      -1.97174543       2.80618753
C       14.27969519      -3.33216969      12.43941174       1.09185374      -0.54190873       0.90469490
C       14.62236346      -2.22634946      11.65535253       2.64774809      -2.18438167      -0.81773617
C       13.70854143      -1.31518073      11.36294098      -4.51416047       1.05151488       0.09413772
C       12.37703068      -1.41547818      11.86722722       1.38097737       2.24661083      -0.24760725
C       15.93958092      -2.09202714      10.93244483       1.19729203      -0.73744414       2.70423872
H       15.01345995      -4.10115979      12.73461893      -0.26822559       0.22481420      -0.54887989
H       12.61028377      -4.03982133      13.80865339       1.49589813       0.09947995      -0.79585179
H       14.77607780      -3.59827752      17.56794025      -0.28930091       0.55614576      -0.41290312
H       12.37491421      -3.30093320      16.79870762      -0.02096575      -0.65324183      -0.50776812
H        8.89517462      -5.45248676      13.22601068       0.13451463      -0.11743817      -0.21593961
H        8.69288438      -2.11119564      16.68491746      -0.64098612       0.18502940       2.60157780
H       -0.31252946      -2.18616019      18.50693649      -0.46703791      -0.22699615       0.44225123
H       17.79859252      -5.21639803      11.41782396      -0.35808232      -0.32474260       2.42172727
H        5.67047741      -3.87789871      12.73128102       0.37093159      -1.07135291       0.19628304
H        3.22800010      -4.08610703      11.94278283      -0.05542438      -1.72530004      -0.23878749
H        2.95500985      -3.13665304      17.69477320      -0.45549293      -1.47090398       0.35373281
H        5.21266885      -3.38397585      16.55517117      -0.23193438       2.07366148      -0.24614176
H        2.87656120      -0.00954184      11.93643255      -0.43092586       0.91608819      -0.22573861
H        5.22405824       0.24893483      13.05161294      -1.06854884      -0.53483860      -0.90833367
H        5.63461409      -7.29859059      17.52094619       0.03043845      -0.41990210      -0.47836407
H        3.50980688      -7.30750910      18.56515460      -1.40762836      -3.97578493       2.28245295
H       11.47690318      -7.36452356      18.22647220       0.96120562       1.33260259       0.49975096
H       13.98928769      -7.41688344      19.12562807      -0.58173756       0.85306733       0.22635728
H       11.66822607      -0.61922307      11.48008783       0.47341284      -1.13413956       0.81973537
H       13.84884382      -0.53444072      10.68041548       0.68402510       1.07181574      -1.09206997
Al       8.84727831      -0.27049318      14.94624964      -0.89731397      -1.01156486       0.30278693
Al       8.52606294       2.98835585      15.22805754       1.54983784      -0.60222000       0.95434526
Al      -0.32834290       2.80451368       9.93075937       1.45252855       1.04242130       0.78589035
Al      -0.25043504      -0.39293410       9.59900671      -0.82320760      -2.15293524      -0.46258564
O        9.86929782       0.38725771      16.41122451       0.27780329      -0.53932867      -0.41825855
O        8.82339296       1.42480650      14.32003727      -0.35647710      -0.26453586       1.64523537
O        8.89032842       4.58502963      15.97251535      -4.28909373       1.68209461      -1.61118129
O       16.51799400       0.13556250      18.87164377      -1.65214730       0.47941739      -0.06975079
O        7.11185018       0.13075069      16.00730089       0.69553471      -0.79794560       0.13491700
O        0.86596548      -0.01697466      18.82456676      -1.58995549      -2.08606182       1.43749077
O        7.28528154       2.34209538      16.43693964      -0.37837993      -0.45578718       0.18432328
O        7.23618532       3.54936011      14.15051234      -0.09820972      -2.56419515      -0.08006621
O        1.13321686       3.30759302      11.25629564       0.19354119       1.62729242       0.25581362
O        9.91135062       2.59201170      16.76097967      -1.62354924       2.58292773      -1.26360285
O       10.17616531       3.48019755      13.95891227      -0.86830984      -0.13424280       0.04924976
O       16.55410342       3.38235839      11.27240529       0.13286652      -1.69863719      -0.14069193
O        0.95089360       2.29558329      19.11774726      -0.80033585      -1.51851148       0.18283536
O        7.44782188       5.73244193      13.68876964      -1.39610332      -2.13966264       0.73534505
O        0.88591505       5.59636900      11.24653253       0.51929272      -0.10680742      -0.63581102
O       16.50374268       5.57158067      10.97779201      -0.63427955       1.37641727      -0.03405627
O       10.13470228       5.75952180      13.92530915       0.06743156      -0.49787770      -0.48088339
O       16.17983646       2.24054450      19.46989075       1.47366982       2.79917240       1.23019541
O       -0.29828767       4.42182448      19.62787775      -1.06665080       0.52351833      -1.43582599
O       17.92601504       1.18826149      10.43107587      -0.89919513      -0.64769016      -0.69675231
C       13.62164925       2.43704792      18.56248334       1.95378129       0.77606708       1.22845057
C       14.25262691       1.16839647      18.71131471       2.98335548       2.67464149      -0.05073200
C       13.70406969       0.04704232      18.24379980      -2.68527843       1.04765586      -0.44306746
C       12.41567893       0.18373810      17.68992453       0.78083453      -0.85529727      -0.04215836
C       11.75167584       1.39700807      17.48926911      -0.06950116      -0.75979744       0.88505092
C       12.36277340       2.53228368      18.05880334      -1.36998795       1.54554752      -0.91574627
C       10.39523926       1.48237167      16.81712829       2.37359267      -3.00217796       1.06853866
C       15.75441269       1.16179965      19.06489933      -0.63749866      -1.73092681      -0.89936154
C        6.66732661       1.19454964      16.50357809       0.62799704       1.50326997      -1.28431012
C        5.30240159       1.23304044      17.01800517      -0.91569962      -1.93207749       2.03666377
C        4.80364728       2.37636148      17.70883566      -0.35442601      -0.26756348      -1.46112776
C        3.50636012       2.37544236      18.20320835      -0.06077481      -2.41574680      -0.75829091
C        2.78356810       1.13137454      18.10291248      -1.81844986       2.84084995       2.14878956
C        3.31467636      -0.04133337      17.68709477       2.04555237      -0.76785162      -0.63154114
C        4.62960092      -0.04008773      17.14203138      -0.93812832       1.60282605       0.24825514
C        1.33397558       1.11946160      18.80516253       4.47571058       2.56658521      -2.72478798
C        6.74437944       4.58466730      13.72232755       0.60777163       5.41063050      -0.18899631
C        5.32242992       4.66149685      13.33140202       1.36466585       3.10717880       0.41231103
C        4.77337841       5.95093493      13.01338078      -2.11906095      -1.35379121      -1.85557393
C        3.43569994       5.95082687      12.37804230       2.54837459       0.49152786       1.34464558
C        2.87517749       4.72547617      12.21352458      -2.39451538      -3.76539418       0.71039576
C        3.35157320       3.50810694      12.85370887      -1.28314799       0.90367775      -0.95769919
C        4.56965541       3.53539783      13.44705708      -0.87059137      -0.78611313      -0.64251634
C        1.51247581       4.52518893      11.53965942       0.21565990      -0.60863077      -0.62790607
C       10.60124560       4.62080057      13.58626981      -0.62582939      -0.11737287       1.12462199
C       11.83403050       4.64738229      12.83809523       1.25690512      -3.90904334       0.61116044
C       12.65613322       3.41873281      12.76525839      -3.60420397       1.00953723       0.59673922
C       13.86727507       3.37266115      12.19459606       0.29406748       0.42995680       0.28272588