304
Lattice="19.30210576295165 0.02430474465756224 0.15664200827183025 0.04001151095589542 13.379399000286291 0.21588058285872874 0.18423276000382807 0.27762677036706246 14.430449986592542" Properties=species:S:1:pos:R:3:forces:R:3 continue=T energy=-89.89829181792447 stress="0.0095840287822422 -0.0018673222714736 0.0013381843004331 -0.0018673222714736 0.0038709750898504 -0.0011824333159715 0.0013381843004331 -0.0011824333159715 0.00042127552220459" free_energy=-56998.686554269 reference_stdout=F reference_stderr=F reference_status=F pbc="T T T"
Al       8.96583857      -7.13426566       2.99385555       0.74343295       2.39702052       0.97006277
Al       9.21555015      -3.65061024       3.05651424      -0.23044232       0.17356849       0.81593501
Al      -0.27557198      -3.66545880      -0.59351275      -0.14782020       1.07117773      -0.07948119
Al      -0.27557286      -6.97869222      -0.67422008       0.02879521       0.70134210      -0.12500137
O       10.27105316      -6.54058510       4.70350723      -0.14153091      -1.46288757      -0.42609137
O        9.19528956      -5.38763590       2.37311142       1.97155537      -0.78056535      -1.61458950
O        9.22233395      -1.88522916       3.96150025       0.36378036      -0.46670556      -1.29605245
O       17.09172104      -5.96383866       5.92014371       1.59203861      -1.14301263       0.55469225
O        7.38210913      -6.44353855       3.86265604      -0.12142401      -1.49667454       0.51676702
O        0.65814562      -6.06122833       5.24395413      -1.03065491      -1.00008901       0.44835903
O        7.47438361      -4.23349896       3.93098749       0.84410448       2.15749192       0.16978239
O        8.04699106      -2.96838599       1.61482161       1.19365252      -1.39543786       0.83751092
O        1.10021178      -3.09294237       0.58114400       1.18620532       0.46966436      -0.13622335
O       10.13340403      -4.30075855       4.62209290      -0.38909825       0.02906722       0.00939167
O       10.96373062      -3.18065038       2.40449219      -0.04097746      -1.99848738       0.27211646
O       17.55323998      -3.35680739       0.96619279       0.46819101       1.63751506       0.40470075
O        0.83485643      -3.78021419       5.42049655       0.58639878      -1.13969501      -0.19190548
O        7.89102644      -0.70745713       1.71214178       0.89688582       0.27939995       1.06644606
O        1.04508954      -0.98286023       1.18165977       0.91080873       1.53007462      -0.55039261
O       17.86799544      -1.12715181       1.39846517      -0.32441191       0.61397648      -0.36634007
O       10.63207167      -1.06542368       1.94633977       2.41673508      -0.09304791       0.29035596
O       17.37730995      -3.70601204       5.78331736      -1.36174916      -1.58796731      -0.34043551
O       -0.51683715      -1.67773169       6.07054325       0.28346400       1.93698818      -0.87096920
O       19.17218054      -5.20201307       0.32783341      -0.04352287      -2.35142144       1.82488640
C       14.24637003      -3.70399938       5.27172106       0.97821323       0.68022892       1.15450986
C       15.12834523      -4.79126298       5.44781458      -0.72094552      -1.22067595      -0.82351710
C       14.49829528      -6.09615363       5.30193308       0.60858819       1.92927151       0.19033718
C       13.15029545      -6.27503579       5.10447604      -1.18027658       0.93621635      -0.95510985
C       12.23879172      -5.12889054       5.03356858       1.87008258      -2.42953563       0.48129616
C       12.83500334      -3.86218791       5.13443977       1.05882428      -0.82736572      -0.08686057
C       10.77244705      -5.40792202       4.80431892       0.38549570       2.60179050      -0.51581101
C       16.68727518      -4.79862879       5.70656320      -1.91494260       1.84426839      -0.05871756
C        6.86938194      -5.30680359       4.14465566       1.90570444      -0.54964401      -1.25236534
C        5.48560706      -5.19894331       4.51314556      -1.79085713      -1.28656898       0.01102118
C        4.94911290      -4.13220078       5.22869063      -1.93905062      -1.15959126      -1.34678076
C        3.54724173      -4.04399485       5.30740767       0.50920821      -0.38209228       0.76830086
C        2.69860027      -5.07943207       4.84574964       1.33058886       0.79880456      -0.28055487
C        3.26094142      -6.20338674       4.16866675      -2.44975363       1.10273192       1.57496261
C        4.60856321      -6.22573218       4.02706441       0.28853322       0.59227392       0.80467659
C        1.29363909      -4.98150942       5.21720138       0.18615143       1.28054760      -1.05255566
C        7.44772165      -1.87495145       1.52418006      -2.05827362       1.90870440      -0.94891489
C        5.94503746      -1.87879897       1.14041840       1.29247225      -1.00448431       0.14635332
C        5.21715358      -0.68658392       0.99242802      -2.33130845      -0.43976884       0.85259216
C        3.78451737      -0.80651497       0.98016475       2.92651878      -2.47579104       0.02760387
C        3.22605492      -2.09962064       0.98801148      -1.14011980       0.85325472       0.06207714
C        3.95093240      -3.30337098       0.98854196       1.33033581       0.95282258       0.66162236
C        5.35869988      -3.16633413       1.12601817      -2.10671704       0.99536401      -0.47206981
C        1.73112004      -2.00393790       0.94052254      -1.47648383      -3.02861521      -0.70470609
C       11.46784778      -2.07607171       2.07802466      -2.93063840       2.01030399      -0.93853704
C       12.90778250      -2.02340696       1.70632245      -0.88710756      -0.76498208       1.77677546
C       13.58442506      -3.24015415       1.70620856       0.66168378      -2.82731861      -0.87993413
C       14.96330799      -3.22891250       1.44726208      -0.79193688      -0.34863437       0.67648401
C       15.63798163      -2.04447785       1.34514292       0.83140436       2.82504515       0.21955641
C       14.93189287      -0.74425488       1.37754275       1.72116792      -0.29086573       0.32387516
C       13.60381674      -0.81087634       1.72033265      -1.91796401       1.98281575      -0.57411793
C       17.15642674      -2.16993723       1.29556267      -1.36250007      -1.15256362      -1.51012400
H       15.60375794      -4.11127667       1.42394108      -0.41799045      -0.15530532       0.05458218
H       13.16957751      -4.34069690       1.82975170       0.05916303       2.63468829      -0.16733133
H       14.74391175      -2.71300674       5.47494775      -0.92566966      -0.59656370      -0.57133394
H       12.21402675      -3.01077243       5.02991449      -0.61797019       0.94383752       0.05816915
H        9.87730040      -5.67655839       1.68153174      -0.82677380       1.26055859       0.70304991
H        8.59039469      -1.77703705       4.65171571      -1.08552670      -0.27088533       1.30289397
H       -0.46843683      -1.43687045       5.11307018      -0.05410585      -0.83285400       0.65296485
H       18.99954001      -5.22916823       1.33303620       0.33236080       0.06902743      -2.20862615
H        5.94364640      -4.04640929       1.24900588       0.73689534      -0.51044741       0.08842729
H        3.48841744      -4.28420810       1.03896122      -0.25955398       0.09403335      -0.09209529
H        3.19095090      -3.23476470       5.95581751      -0.43215201      -0.23037129      -0.47763656
H        5.49625983      -3.37430841       5.69347659       1.28379192       1.09240773       0.53823926
H        3.02333325      -0.09792994       1.06982998      -0.56552721       1.97155982      -0.05529225
H        5.60980225       0.30592890       1.16193936       0.63611474       0.05283356      -0.29516967
H        4.87565519      -7.18335280       3.71136449       1.76431072      -1.16876947      -1.00901458
H        2.55762550      -7.05423914       3.97954880       0.82008318       0.62235426      -0.22544454
H       12.80424145      -7.27741147       4.78256529      -0.12722677       0.48624314       0.64974165
H       15.13457918      -6.93137091       5.39724325       0.65077859      -1.08288974      -0.11073740
H       12.94336228       0.12308027       1.93960302       1.25061125      -1.40483901      -0.69799932
H       15.38808884       0.30297469       1.16059223      -0.30988900      -2.08511261       0.75339051
Al       9.38276834      -0.19903201       3.21279804      -0.79262808      -2.50795748      -1.39906764
Al       9.31245034       3.04309275       3.13963737       0.31732339      -1.00199664      -1.79639348
Al      -0.34437844       3.01406626      -0.04572793       0.17012106       0.28261504       0.16148119
Al      -0.35106784      -0.41220967      -0.18270448      -0.83641193       0.70624818       1.27937481
O       10.75440166       0.30575314       4.24236020       0.19703028       0.98706907       0.88089245
O        9.43014964       1.27587209       2.25140955      -0.10614450       2.90632064       0.70313074
O        9.09869176       4.63042995       3.93374472      -0.30667593       0.04060348      -0.39182150
O       17.33998633       0.53027042       5.77469807       1.00162372       0.94859475       0.84560893
O        7.75693466       0.25234130       4.40481637       0.60767615       1.95330859      -0.77508360
O        0.81006262       0.69618947       5.54421223       0.04298017      -2.49639394      -0.07079091
O        7.71610336       2.56060654       4.08311241       0.57579095      -0.42404467      -0.32089998
O        7.98663565       3.67877830       1.53973356       0.41364802       0.95336478      -0.06336249
O        1.26137404       3.60967392       0.80108133       1.26052303       1.64012107       0.08612728
O       10.48224691       2.51711198       4.61246221      -0.47043061       0.65323109       0.19089812
O       10.99476627       3.59930409       2.37342798       0.35165672      -0.25062361      -0.16971119
O       17.95061816       3.96776808       1.61195836       0.41670980      -1.88242311      -0.42911982
O        0.99293532       2.83224099       5.51422730       0.32545457       2.21313774       0.13944899
O        8.12898215       5.91913366       1.67988201      -0.65634271       0.33612168      -1.07334843
O        1.35152852       5.91841168       0.44118146      -0.64826872      -0.96056950      -0.16287166
O       17.84084927       6.09019527       1.05131695      -1.75525987      -0.49390299       0.94275999
O       10.80573166       5.82256339       2.19011762       0.04910416       0.27223777       0.51022452
O       17.26102474       2.85263283       5.66257688       1.91768904       0.42442585       0.61033059
O       -0.77950788       5.04901982       5.81857435       0.07707311       1.17013228       0.30417957
O       18.99708003       1.32088620       0.94752942       0.59736044       0.13416023      -1.88815111
C       14.52221581       2.70728573       5.61690453      -1.68178438       0.43550207      -0.50996778
C       15.32131774       1.59625282       5.38707843       0.14192429      -0.97344623       0.56109854
C       14.76811378       0.31539914       5.10568257       0.40984720       0.41469308      -0.72210004
C       13.40236035       0.29312340       4.93079118       0.75084728       0.02182996       0.28989093
C       12.59510027       1.38425677       5.15462296      -2.04052131       1.33138207      -0.51230497
C       13.08500039       2.60557102       5.49316531       3.77964204      -0.33330802       0.76757645
C       11.15433638       1.46303549       4.67729356       1.07764581      -3.26725664      -0.21211517
C       16.79768149       1.69009176       5.64682442      -1.62071768      -1.69606476      -1.00822530
C        7.21002102       1.43998191       4.39720592      -0.91730694      -1.99397802       0.89926782
C        5.73898313       1.45734444       4.80378590       1.86451274      -2.35279070      -0.95592725
C        5.12941289       2.66816772       4.84204339      -2.89630269       0.19262305       0.21476504
C        3.74495392       2.83549456       4.92223744      -0.02919944      -2.86975962       0.74732757
C        2.99372625       1.62555026       5.09692678       0.49218853       0.06547868       0.32981277
C        3.65175423       0.37148951       5.11216204      -0.19693262      -1.71479578      -0.48609400
C        5.03713002       0.22767662       4.87615248      -0.93707658       1.08642013       0.07495100
C        1.54247738       1.69133603       5.43616205      -0.51126162       0.49718508      -0.93065271
C        7.46837604       4.88259675       1.36746648       2.06393643      -3.33031229       2.40828697
C        6.03302713       4.89888946       1.25566791       0.17351340       0.40352073      -0.22179227
C        5.39380608       6.10140679       0.95009216       1.09396150       0.44008448      -0.01073656
C        4.01809866       6.20423065       0.90225055      -0.00533914      -0.27888139      -1.09807124
C        3.29363790       4.97908107       1.10165805       0.39271433      -1.42176634       0.07193142
C        3.95571152       3.78182827       1.50261701      -0.44562081       0.16430207       0.24853119
C        5.36298180       3.75388959       1.63812547      -2.05700698      -2.04346307       0.22749681
C        1.85343742       4.76289016       0.74815501      -0.63720377       1.37357823       0.29940307
C       11.52054280       4.75755382       2.21863215      -1.42412160       0.92397128       0.04975319
C       12.99388940       4.90723867       2.05711571      -0.51821003      -2.54959092       0.17801371
C       13.77671949       3.76695525       2.31115976      -0.38456511      -2.44858273       1.67731141
C       15.15830109       3.71771353       2.06756206      -0.17209897      -0.10436461       0.73071788
C       15.81401514       4.88951594       1.65084042      -1.61506427       0.84178839       0.27241663
C       15.02146657       6.03398270       1.42871496       0.33850225      -1.02251203      -0.05619145
C       13.62276198       6.00124349       1.57031732       1.83871030       2.17904002      -0.71983577
C       17.25041385       5.00138723       1.44335609       2.00776898       0.33923488      -0.67652530
H       15.74847233       2.83025915       2.33304632      -0.22033406       0.19108292      -0.15515689
H       13.24704097       2.86980003       2.90827792       1.24195535       1.85378951      -1.76961836
H       15.04796870       3.64941218       5.74302761      -0.22246983       0.15296102       0.32807455
H       12.35251530       3.32872133       5.66492318      -0.57401897       1.84215638       0.23933263
H        8.77255880       1.35083689       1.55445144      -0.32841002      -0.31363383      -0.67730336
H        9.11619431       4.35851823       4.84549094      -0.08690531       0.66333778       1.27607041
H       -1.69529848       5.16022046       5.44585010       1.14768632      -0.43069714       0.24421136
H       18.53410155       1.15173831       1.74635413      -0.77221681       0.07177286       1.64662056
H        5.80973305       2.78160999       2.01889129      -0.08966465       1.51934733      -0.68845130
H        3.25106198       2.89721125       1.67539880       1.26378895       1.02383774      -0.14782310
H        3.20735390       3.74808613       4.99857184      -0.16774746       0.98426626      -0.13013662
H        5.70773558       3.49977918       4.76314057       1.80237656       2.47595142      -0.27349339
H        3.71423784       7.16450432       0.41651304      -0.80153829      -1.02539723       0.81773341
H        6.11389936       6.93005590       0.71558509      -1.03086261      -0.45308455       0.19422747
H        5.49214274      -0.77060508       4.72536971      -0.08950877       0.73828938       0.23927880
H        3.10034031      -0.61336716       5.30105261       0.23204701       1.61803612      -0.48295232
H       12.92003526      -0.51642804       4.52198182      -0.94416155      -2.26495043      -0.74363282
H       15.42062170      -0.55897417       4.81919997      -0.67745200       0.97630702       0.56993214
H       13.12235838       6.90671509       1.29157730      -0.71634199       0.38798466      -0.06232358
H       15.65303469       6.83778300       1.08376890      -0.53881839       0.88564287      -0.19079539
Al       9.24272303      -6.68821070      10.51622305       0.19596185       0.04975552       0.97722852
Al       9.27195184      -3.36104764      10.84296508       0.93242867      -0.47398198       0.88585805
Al      -0.38881581      -3.37620114       6.71601002      -0.45847240       1.89328950      -0.50653881
Al      -0.53784836      -6.62033633       6.70259024       0.49866239      -1.88641152      -2.82387083
O       10.81454777      -6.22758170      11.70301506       0.02939326      -0.38107012      -0.61210418
O        9.22092858      -4.96376181       9.92932900      -0.07781903       0.70531401      -0.69013943
O        9.28666339      -1.69741575      11.50216948      -0.19192847       1.18533173       0.84898460
O       17.65205327      -6.14900349      12.96087429      -0.61121646       0.54247525      -1.05750134
O        8.00970036      -6.41331955      12.03142628      -0.81611074       2.58898400       0.55921850
O        1.04516706      -5.93832195      12.20814718      -1.13733078      -3.05786130       1.06797002
O        8.17887149      -4.10060196      12.27675808      -1.42602801      -1.67419784      -0.17795319
O        7.81059786      -2.70843002       9.87703664       1.36672103      -3.83141600       0.20382935
O        0.97515666      -2.64341668       7.97287765      -0.21468623      -0.71010377       0.28994029
O       10.78010568      -3.97724607      11.90479777      -0.70774771       0.60679736      -0.66426065
O       10.78303441      -2.63867651       9.62489142      -1.77356001      -2.74180089      -0.29534252
O       17.52229261      -2.96251525       8.20618485       1.45437396      -2.03025962      -0.28743209
O        1.21491130      -3.74136852      12.47797000       0.10415593      -0.68869762       1.11102863
O        7.62141152      -0.50270763       9.73518265      -1.27139507      -1.62499149      -1.51332127
O        1.26982752      -0.37007337       7.70311496       0.11387715      -2.47899217       1.32010205
O       17.54113112      -0.66008058       8.30620050       0.54710157      -1.27057019       0.39482331
O       10.62177460      -0.40983074       9.64995557      -0.22691338       0.21306419      -1.16027556
O       17.66094631      -3.89085645      12.88449295       0.73018981       0.88964832      -0.10911087
O       -0.43994769      -1.65774298      13.18491803       0.50166878       0.10360009       0.65474830
O       19.21796761      -4.99686751       7.48252817      -1.37657943      -0.28768357       2.66593760
C       14.89906170      -3.72251494      11.99808042       3.57475823      -0.27876788       1.73562358
C       15.66053713      -4.97314654      12.19442240       0.18398336       0.87745554      -0.82068596
C       14.99532109      -6.17981156      11.91242969       0.90630374       0.50923009       0.32543995
C       13.60963742      -6.10308888      11.79714226       0.45866769      -0.90065573      -0.55240662
C       12.86347079      -4.93770028      11.92866848       0.00170925      -1.01449031      -0.53614744
C       13.55680120      -3.70846085      11.95312546      -1.55245302      -1.16554647       0.10697367
C       11.37394862      -5.10092862      11.81275510       0.58171263       1.41024079       0.78844134
C       17.13168758      -5.00923577      12.66174921      -1.19155306      -0.57163058       0.28057643
C        7.49180926      -5.23038591      12.28908348       2.02261106       0.22862148      -1.58613614
C        6.02346027      -5.13074277      12.32361516      -1.34020695      -2.47535536      -0.43064615
C        5.36376945      -3.94499604      12.39347780      -0.23026415       3.57716731       0.13106527
C        3.95596661      -3.77695892      12.35701315       0.98577518      -0.37671769       0.68172923
C        3.20962779      -4.91017780      12.11428394      -0.53916857      -2.18688716       0.84680815
C        3.82740776      -6.19996387      11.89097689       1.56856385       1.92287656       0.49343795
C        5.20220372      -6.32736017      12.02841429       1.40561706       1.59093571      -0.47097658
C        1.74174326      -4.94232774      12.37920160       0.30745526       4.27543292      -2.18349739
C        7.19693318      -1.74069240       9.48735296       0.48591918       3.04554767       0.49366433
C        5.91674865      -1.94946749       8.83961373       0.03433066       3.33758447      -0.35085239
C        5.50811104      -0.80313591       8.13322232      -4.38534115      -0.85593941      -0.86621476
C        4.06288960      -0.74895918       7.75227476       2.43438598       1.17737411       1.51771895
C        3.19246657      -1.72185728       8.21556042      -1.47114671       1.31277671      -1.17894912
C        3.74119798      -2.87891014       8.65384039      -0.11168916      -2.12969172       1.37025535
C        5.03517035      -2.97799184       9.11406146      -0.39825452       0.19180816      -1.89913987
C        1.66762723      -1.60307233       8.00864302       0.81615715       2.61936329      -1.49248516
C       11.24391482      -1.50864422       9.48160904       2.44460043       2.04291030       1.07426459
C       12.80466575      -1.45972000       9.37986629      -0.59112621       0.20102015      -1.37279519
C       13.40329282      -2.63507632       8.83852703      -3.31790575       0.80431046       0.80254137
C       14.72302046      -2.78771437       8.62241013       0.74687503      -1.52675061      -0.21034566
C       15.57138029      -1.79433729       9.04486873       1.50556662       0.53419044      -0.32434211
C       14.99312956      -0.59448949       9.52799373       2.03265067       1.77255848      -1.41281572
C       13.63032926      -0.32016533       9.56266946      -1.22890867       0.70289215       0.19784303
C       17.07280873      -1.87411935       8.52997709      -2.88039280       4.56575220       0.60415007
H       15.03534567      -3.70720464       8.12000516       0.36968126       0.25046432       0.11545360
H       12.61991351      -3.35017162       8.57363896       0.55208365      -0.43473317      -0.09670282
H       15.37466742      -2.71353530      12.13876030       0.05502278      -1.14122561      -0.24545495
H       13.06270527      -2.76945598      11.97582856      -0.73809663       0.68327003      -0.08760202
H        9.36370042      -4.86450708       8.96801744      -0.06619962      -0.14681845       0.27098028
H        9.39002085      -1.61081193      12.45308695       0.20033999       0.02578032       0.60183996
H       -1.21766920      -1.74244896      12.61671448      -0.18728969       0.33730662      -0.15826277
H       18.85100963      -5.12214307       8.38539194       0.39562868       0.62130179       0.24759902
H        5.38539770      -3.94524589       9.26295781       0.86467633      -1.61505781       1.18149936
H        3.11729153      -3.76406833       8.68412317      -0.28583381      -0.16785058       0.32773824
H        3.53438507      -2.83322984      12.75983659      -0.01224792      -0.59859669      -0.78957611
H        5.90455586      -2.95106979      12.43944386      -0.04894197      -1.33348268       0.33937020
H        3.63273235       0.13532100       7.28131259       0.30479676      -0.05327291       0.27452696
H        6.12779105       0.04980433       7.92210009       0.38470859       0.11751693      -0.03897820
H        5.81646724      -7.17357727      11.67537036      -0.64986041      -0.04456150       0.64255046
H        3.26713045      -7.04638442      11.61844294      -1.02099512      -0.91824551      -0.25323058
H       13.10968921      -6.99076747      11.45830376      -0.55790352      -0.51504541       0.24880618
H       15.61883561      -7.11268169      11.80160517      -0.90406016       0.82335817       0.26469754
H       13.19705416       0.78404482       9.65866877       0.95515330      -2.53573383       0.06127803
H       15.72613732       0.26162059       9.44691100      -0.75175488      -0.68487096       0.72742296
Al       9.07136507       0.01703727      10.67558152       2.23069389       0.27989459       0.47303702
Al       9.23346014       3.44623960      10.45336201       0.37636977       0.05629449       0.99014920
Al      -0.41633356       3.36658112       6.58125317      -1.14378876       0.36698808      -0.30028842
Al      -0.45456739       0.04978946       6.90808703      -0.14805497      -1.26672910      -0.81516985
O       10.72747460       0.63101473      11.87630237       1.47616074       1.77646631      -0.53737761
O        9.01878310       1.72749410       9.83353686       0.10755076       0.34742050      -0.43449509
O        9.39216010       5.03214900      11.43254786       0.39397475      -0.90061703      -0.34489465
O       17.45193036       0.79563432      13.35271080       1.29107296      -3.62567318       0.81693805
O        8.08318349       0.78332720      11.96049438      -1.85603161       1.07756434       0.62649660
O        1.14106633       0.47191788      13.21694002       2.31013133       0.07390172      -1.78678551
O        7.92261081       3.03834567      11.78196154      -0.46198965      -0.68283307      -0.04716771
O        7.79847981       4.16920528       9.37534767       0.80902788      -1.76676564       0.08275923
O        0.80288267       3.86178757       7.91361277       0.81918464       0.17156055       0.16896807
O       10.92646240       2.85275750      11.29393944       0.05859404      -0.74104732       0.37208404
O       10.44610794       4.09208652       9.18450201       0.38604369      -0.54970213      -0.77880340
O       17.46976740       3.92039150       8.01326049      -0.73626622       0.16874622       0.75225657
O        1.09013953       2.66733396      13.03364285       0.72511727      -0.32500005      -0.84235427
O        7.62753693       6.35096320       9.76317411      -0.99341973      -0.83695902      -0.14344914
O        0.99114340       6.11609506       7.96305808      -0.37939988      -0.06771673      -0.53811019
O       17.68073821       6.09982632       8.32580137      -0.01195725       2.31893586       0.79332395
O       10.60481311       6.34693037       9.33891140       0.43646176      -1.28252287      -0.28133426
O       17.49326029       2.91460042      13.74173441       0.27172877       2.78572380       1.02097435
O       -0.09038707       4.94557408      13.30205046      -0.47233707      -0.55977064      -0.52632828
O       18.87351140       1.74973466       7.70960011       0.76528123      -0.08615718      -1.74517605
C       14.85657524       3.12269107      12.64455408      -2.97399530      -0.51904584      -1.32071302
C       15.47761638       1.92986213      13.03508354      -1.09665633       0.55281272       0.30204168
C       14.80413347       0.70341650      12.98849764       0.88758333       0.54098340       0.08516369
C       13.53808614       0.64187881      12.51823972      -2.08867350      -1.73522643      -1.03166422
C       12.88343403       1.77044698      12.05864170      -0.13558552       2.28209952       0.37415762
C       13.50961477       3.07614728      12.11248543      -0.25671114      -1.50946284       0.56723548
C       11.43090822       1.72048535      11.69015780      -2.06070287      -0.72004434       0.39270322
C       16.84793018       1.86616420      13.51283213       0.99375734       0.48020146      -1.80179629
C        7.39032448       1.88681556      11.91679290       0.54591396      -0.31305514       0.74380736
C        5.89589957       1.82669856      12.10116177       1.49182855       1.19908813       1.76672188
C        5.16340796       3.03135506      12.52771815       0.56603677      -1.05564438      -0.70047075
C        3.77940211       2.92703975      12.45278631       1.85511467      -2.28869303       0.57858052
C        3.15822688       1.62728554      12.43750913      -0.99364166       1.08933359      -0.34247852
C        3.85243477       0.48220816      12.19980531       3.75087851      -0.49183422      -0.23973148
C        5.33823966       0.57867296      12.05775840      -3.87937763      -1.61732503      -1.43687985
C        1.73325142       1.56530017      12.84077987      -2.58427161       0.55095118       1.72054955
C        7.08720984       5.19216051       9.50747554       1.36905698       0.77730611       0.03871021
C        5.63803751       4.98455272       9.33228592       0.53354412       3.10020981      -0.20041282
C        4.89995265       6.18387617       9.31429451      -1.66761834       0.99214794      -0.72272103
C        3.54579622       6.15428825       9.02634686      -1.61431055      -3.04405372      -0.53930976
C        2.79056095       4.92441721       8.79199166       3.39402169      -1.17053598       1.03683641
C        3.61411111       3.72046936       8.90429480      -0.37138890       1.12955381      -1.12064075
C        5.04032933       3.79690963       9.01753955      -0.95383327      -2.06826800      -0.61168942
C        1.40369886       4.93160698       8.20423647       0.94897996       0.83470768       0.27316790
C       11.08080259       5.16613718       9.05737166       0.99174287       1.07347029      -0.40832358
C       12.58697211       5.10068489       8.62680449       0.85845392      -0.20393833       0.71697283
C       13.40771495       3.93314826       8.70234630      -0.80096500      -1.81285367       0.79289207
C       14.80888391       3.87523438       8.80027673      -1.52917521       1.39440591      -0.83326239