304
Lattice="18.172706585382787 0.029611372851132217 -0.03602368198486452 0.07042132488188935 13.26496753034851 -0.02306658683242706 -0.027789066070884078 -0.024716108631126013 20.83663064414703" Properties=species:S:1:pos:R:3:forces:R:3 continue=T energy=-56981.62134487545 stress="-0.009121239235411516 -0.0005923527734708286 -0.0009081358655910803 -0.0005923527734708286 -0.015226457511481372 0.0026234919776704805 -0.0009081358655910803 0.0026234919776704805 -0.0010024524094840667" free_energy=-56996.758737346 reference_stdout=/dodrio/scratch/projects/2022_050/test_psiflow/evaluate_dataset/psiflow_internal/000/task_logs/0000/task_0006_cp2k_singlepoint_pre.stdout reference_stderr=/dodrio/scratch/projects/2022_050/test_psiflow/evaluate_dataset/psiflow_internal/000/task_logs/0000/task_0006_cp2k_singlepoint_pre.stderr reference_status=T pbc="T T T"
Al       8.54911074      -7.27325876       4.59840483      -0.08692386       2.49887335      -0.99564178
Al       8.68034468      -3.89037232       4.61151412       0.12079866       0.10565641      -0.97014054
Al      -0.36351203      -3.80104181      -0.58481253      -0.57341107      -0.26410528      -0.22820908
Al      -0.30338573      -7.09667145      -0.47585546       0.04728259      -0.69000187      -0.02106299
O       10.04282446      -6.73857833       5.75531958       0.40878384      -1.63945274      -0.71970582
O        8.63671832      -5.60225583       3.68276858      -0.32309102       1.59986083       0.95382947
O        9.20573893      -2.09758133       5.29593827      -1.07586689      -0.10281688       0.97525858
O       16.49903156      -6.64221401       8.32940687       0.41630328      -0.26018178       1.38115147
O        7.49272680      -6.27515714       6.07707202      -0.96932191      -0.96852435      -0.32635118
O        0.89510756      -6.72042179       8.16163314       0.96352818       1.07955693       1.63418455
O        7.10406275      -4.16538987       5.56533050      -0.01190935       1.27641243      -0.28093058
O        7.60889126      -3.04236965       3.27566632      -1.34099906       0.05751558      -0.45051182
O        1.16290778      -3.35648074       0.45632263       0.15220623      -0.21040110       0.14014982
O        9.86190819      -4.51134263       5.86293279       1.42628153      -0.30866044      -0.10809793
O       10.17128255      -3.44415392       3.07229102      -0.74519471      -1.29806935       1.36723049
O       16.52925199      -3.05557521       0.63555602      -0.35672773       0.61198739      -0.15635702
O        0.79690797      -4.48794773       8.27334422      -1.60536968       3.05035085       0.87598520
O        7.11923093      -0.86975766       3.50720888       0.06498515      -0.34833205      -0.06437066
O        1.01132798      -1.10589641       0.56049375      -0.24309628       0.04943512      -0.46828688
O       16.37696220      -0.77134358       0.34424473      -0.94378262      -1.09540367       0.78198669
O        9.91928667      -1.17797090       2.86304412      -0.13207707      -0.66678737       0.09489634
O       16.20090552      -4.45418141       8.85643336       1.80448621       3.42547637       1.46237108
O       -0.38546747      -2.13805026       8.81426341       0.39152402      -1.40627218      -0.71920446
O       17.92095554      -5.36391652       0.24762539      -0.48184637      -0.84942570       0.38115939
C       13.77877739      -4.38834835       7.55117407      -2.02211108       2.95735044      -0.74999650
C       14.40899081      -5.53303571       7.78528891       1.44715786      -1.84358703       1.50358998
C       13.66553698      -6.70140065       7.60799977       3.52435638      -2.02358947      -0.33576913
C       12.47593123      -6.79222403       7.00952251      -2.35666408      -1.11633811      -1.31102925
C       11.85293200      -5.55363052       6.65866251      -0.20380673      -2.20955429       0.38307383
C       12.44403683      -4.37644605       7.00114790       2.06313664       0.56504316       0.04177940
C       10.56031281      -5.62611004       5.99783337      -2.36409508       1.83983888       0.41221883
C       15.87589929      -5.52896317       8.40942424      -3.75117912      -2.70241320      -2.71164861
C        6.70455159      -5.26084636       6.08785453       2.42316721      -0.41361237      -0.64480033
C        5.38859415      -5.27875912       6.69109653       1.69888328       1.33200894      -1.02275406
C        4.68344441      -4.09042986       6.77088227       1.15686795       1.83099377      -0.30800995
C        3.41507349      -4.15396525       7.19591182      -3.56103317       1.10775834       0.89204637
C        2.85445504      -5.40239222       7.54929834      -2.57636332       3.16975340       0.51970483
C        3.62161798      -6.46314667       7.51266918      -0.86145486      -6.75868253       1.88470772
C        4.88675551      -6.47244247       7.03621547       1.90880204      -2.40303136      -0.80097171
C        1.41954310      -5.52551827       8.06529613       1.33436716      -3.42980765      -1.23688480
C        6.81938228      -2.03917986       3.04443721       2.66140410      -0.22804555       0.53832476
C        5.60858894      -2.19940501       2.22385119       0.51406023       2.60231449      -0.28766687
C        5.21339372      -1.12898277       1.33658312       1.69060741      -1.29156189       0.40594122
C        3.96694188      -1.06744891       0.85403167      -3.36909825      -0.28892928      -1.47641136
C        3.03435984      -2.07290202       1.28559740      -0.35654416       1.23249593      -1.77760635
C        3.43220400      -3.02175145       2.14983985      -1.07010710      -1.83634269       1.89316408
C        4.71541303      -3.11653611       2.67289731      -0.42098938       0.38497542      -0.71621169
C        1.62656095      -2.22333775       0.71983817       1.04319330       1.73862894       0.52029567
C       10.50391226      -2.31781310       2.66162030       0.55639756       1.96039072      -1.29773459
C       11.80026734      -2.22887908       1.86650777      -0.28176927       1.80171250      -0.20086025
C       12.63226683      -3.27438573       1.95984360       1.34677942      -3.19721536       1.58273729
C       13.97424746      -3.15622652       1.67936220       0.30430962       1.94116298      -1.47684537
C       14.49916540      -1.94114211       1.10614235      -0.50617209      -1.24676196       0.51211082
C       13.66113387      -0.81957625       0.91601429       0.16474345      -1.27287819      -0.01136942
C       12.35720890      -1.04603071       1.28764339      -3.40057369       1.17505285       0.83472207
C       15.88326366      -1.91761266       0.63804792       0.75755761      -0.88454183       0.84964373
H       14.59298363      -3.99544732       1.84406386       0.98533268      -0.78307426       0.04562012
H       12.33133328      -4.22177745       2.47298411      -0.08801812       0.73481003      -0.50961634
H       14.35548866      -3.49797729       7.77874462      -0.31760274       0.60281369      -0.13004178
H       11.93947364      -3.50893728       6.62757022      -0.11979285       0.94029466       0.21337073
H        9.31451063      -5.44022481       3.00424494      -0.03198967      -0.60927076      -0.23403417
H        9.02279697      -1.86610132       6.25076970       0.19154463      -0.75890024      -0.86811351
H       -0.19979319      -2.42850557       7.87263468      -0.11290589       1.16793090       1.06426658
H       17.36451973      -5.44603853       1.04174810       0.03326545       0.18851690       0.21813858
H        5.14060262      -3.74555953       3.40312094      -0.34878148      -1.38744142       1.04237107
H        2.56477504      -3.56832680       2.51976944       0.47534507      -0.95148308       0.19471840
H        2.71615617      -3.27550075       7.31853550       0.98209977      -0.62289915      -0.23203025
H        5.16251162      -3.11762701       6.52558167      -0.23886476      -0.70650423       0.05719728
H        3.59377814      -0.35925429       0.06154902       0.68760765      -0.42134573       0.82772713
H        5.95838837      -0.54605020       0.84473998       0.78325990       0.84983502       0.18571182
H        5.59409840      -7.33053204       6.74901778      -1.42507312       0.69806896       0.99787864
H        3.14695747      -7.43193431       7.96519450       0.80783605       1.41650928      -1.10138817
H       12.04567456      -7.84946178       6.72292993       0.57896414       2.28533653       0.52037075
H       14.30314883      -7.58937748       7.58303326      -0.24149294      -0.41820127       0.75110516
H       11.53451333      -0.29909725       1.25769888       0.89562174       0.32318821      -0.29159654
H       14.05037664       0.08705080       0.44128379      -0.28875239      -0.13022381       0.22121825
Al       8.89888025      -0.57450178       4.36840849      -0.67806577       0.84386800      -1.25369776
Al       8.88777551       2.71443716       4.47852882      -2.01342744       0.31825169       0.33114217
Al      -0.27641609       2.78376717      -0.37773123      -0.79407190       0.51286467      -0.32365975
Al      -0.34536434      -0.56230012      -0.66654710      -0.09834985       1.22454814      -0.38454810
O       10.55695121       0.08865833       4.94177307       0.31494216       0.65251724       1.75458572
O        8.82272599       1.11898712       3.51713337      -0.38880174       0.33398067       0.09709463
O        8.48857016       4.42935802       5.34576969       0.79656741      -1.63632474       0.41038101
O       16.75678420       0.12851938       8.14881278      -1.47896858       1.89144041      -0.58545823
O        7.60601849       0.13641017       5.95999850       2.67042302      -3.61595811      -0.67347841
O        1.29649906       0.01143304       8.74726000      -0.15647375       0.20817144       0.13242776
O        7.33019029       2.27504579       5.55466629       1.01668369       2.85334931      -1.24541675
O        7.61862916       3.39077689       2.96850903       2.32118285      -2.26769259       0.54469133
O        1.11888448       3.28784879       0.68603896       0.68356331      -0.50592578       0.83092764
O       10.01893677       2.04628744       5.99909872      -0.50919056       0.21921690      -0.80236062
O       10.27737598       3.39087090       3.60834558       0.87429495      -0.49180631       0.09033469
O       16.71425352       3.50976165       0.88933646      -0.16349029      -3.01977272       0.69389554
O        1.35654914       2.31187215       8.87755894      -1.07569102       1.33572830       0.41357329
O        7.11650166       5.57262903       3.44503170       1.00756450      -0.43407269       0.16409502
O        1.06376062       5.53053115       0.71003944       2.03651955      -0.90791624       1.16903030
O       16.62557247       5.66910004       0.90009964      -0.22056107       2.66991034       0.15080293
O        9.94580164       5.57138510       3.15250703       1.20312159      -1.31770898       0.77770014
O       16.59453438       2.32356823       8.58386542      -1.81180923       0.43652296      -1.01134556
O       -0.20832219       4.39624997       9.15220302      -0.55903500       0.46696173      -0.62983753
O       18.01131959       1.11659499       0.23043872       0.07385494      -0.54729792       0.52360571
C       13.72719924       2.11710236       7.78136420       0.43582362      -2.28726383      -0.85667467
C       14.73340929       1.13164182       7.48259278      -1.85572881       1.56736106      -0.77204732
C       14.36026012       0.12092891       6.54892345       1.65370077      -0.20549698      -0.08873546
C       13.20802473       0.23635388       5.81384529      -0.83628479      -0.38182016       0.83868826
C       12.23287555       1.19584969       6.18404645      -0.62446136      -2.42652147      -0.34495362
C       12.43018802       1.97911866       7.27086694       0.19470040       2.88526493       0.22345305
C       10.82094106       1.08691902       5.72019605       0.58550554      -0.38024716      -1.75708483
C       16.06354267       1.27047816       8.05945345       2.99409202      -2.73975179       1.65711159
C        7.02839813       1.20345412       6.09603058      -2.27720927       0.24762451       0.88571785
C        5.74953484       1.19962969       6.86135407      -0.75721154      -0.76021921       0.12432262
C        5.45242947       2.08838254       7.88310739      -0.59822067      -0.07196827      -0.79762928
C        4.15433201       2.17453846       8.33262548      -2.60375534      -0.51632486       1.93256264
C        3.16489559       1.11574722       8.04090583       3.04749538       1.23186601      -0.94007612
C        3.52797675       0.12154267       7.07558677      -2.04037311       0.26028565       0.68453621
C        4.76269282       0.29763462       6.46175554      -0.00334912      -1.64516059      -2.29336454
C        1.83723426       1.20198672       8.62229960       0.47191111      -2.07216481      -0.61326626
C        6.94937464       4.41425060       2.85273933      -0.59971706       3.01643491       1.35210263
C        5.68127737       4.35474710       2.20083517      -1.83072021      -3.61567169      -0.10220547
C        4.98911953       5.50074513       1.89633778       3.22124129       1.12406839      -1.21560738
C        3.71323193       5.47083306       1.51399891      -1.08939449       2.16692796       0.30002308
C        3.01927011       4.30760358       1.54960138      -0.95904572      -1.53858681      -0.34845495
C        3.61457385       3.04951613       1.82646738       2.63348912       0.67966603       1.44428491
C        5.04117025       3.03924565       2.21534685      -3.81553023       4.36408182      -1.85457285
C        1.66541563       4.39134802       1.01015929      -2.49138938       0.93662570      -1.69858246
C       10.73261146       4.51823323       3.21989240      -3.72096659       1.71302178      -0.01902771
C       12.06303447       4.58743382       2.77368007       2.67356542      -1.29222986      -0.27571792
C       12.76693665       3.35613650       2.73671192       2.35577911       0.64289205      -1.62629538
C       14.13025972       3.30389878       2.22362112      -2.48514314       0.40553139       1.48166259
C       14.77599424       4.49831943       2.00795394       1.67854585      -0.36635395      -1.05220039
C       14.07356750       5.68009983       2.17478823       2.44001514       1.68714157      -0.75604734
C       12.76230522       5.77144067       2.46683716      -2.18032701       0.42602617       0.38709504
C       16.18020581       4.56228999       1.26911926      -1.76857715       0.19169838       0.17885521
H       14.59610039       2.35926314       2.10036075       0.55671844      -0.89780358      -0.23696163
H       12.30129883       2.41139081       2.90809231      -0.60523464      -0.47968510       0.35003207
H       14.00465146       2.87780480       8.42640121       0.33293063       1.62869473       1.48707219
H       11.56632939       2.68641845       7.41137778       1.04713378      -0.42958252       0.69245470
H        8.41131685       1.18502400       2.62530755       0.12126815       0.00606523       0.64333377
H        8.23400010       4.24211628       6.26589611      -0.03577382       0.40032953      -0.11955785
H       -0.86944483       4.26602896       8.44857516       0.05989745       0.44151038      -0.60100826
H       18.17872624       0.87956441       1.17041199      -0.04561960       0.55371076      -0.55262421
H        5.53375938       2.20591371       2.55898465       1.14198589      -2.03121742       0.71854214
H        2.99284509       2.17409767       1.97415478      -0.03814797      -0.23172840      -0.40221672
H        3.79053361       2.97157909       9.08922734       0.76895222      -1.17092366      -1.22260850
H        6.21658483       2.77224627       8.11726257       0.78011955       1.18018375       0.73953057
H        3.21920471       6.43184454       1.35070486      -0.24832179      -0.28849631      -0.47336481
H        5.64367148       6.35998419       1.65246881      -0.59519757       0.08908050       0.84354507
H        4.91805626      -0.23494849       5.47154358       0.15539440       0.15339100       1.26954759
H        2.69422692      -0.66958917       6.77568373       2.00660270       1.59694469       0.43921644
H       12.95249566      -0.61594673       5.20621838      -0.25820563       0.05720962      -0.75005101
H       15.01438567      -0.74454745       6.30975007      -0.08882134       0.66954411       0.39346469
H       12.18856112       6.71907126       2.42779450       0.46554968      -0.41881114       0.21701501
H       14.72351195       6.54648103       1.96952311      -0.64584419       0.15999873      -0.00508359
Al       8.67669925      -7.04373340      15.12539413       1.20231375       0.65330913      -1.13023081
Al       8.80823775      -3.63412129      14.94061849       0.06861761      -0.60260903      -1.03477603
Al      -0.24740586      -3.77207772       9.74834792      -0.12208987       0.22528470      -0.42346895
Al      -0.36314230      -7.12270773       9.77640484       0.14801533      -0.79536157       0.06544127
O       10.25578414      -6.43034365      16.27802880      -1.86685243      -1.20569269      -0.83686175
O        8.75621761      -5.40568260      14.17614117      -0.56158091       1.17689068       1.21992684
O        8.96100292      -1.98526621      15.80988136       0.30580909       0.50106485      -3.56563236
O       16.23290978      -6.69349824      19.28426500       0.30309863      -0.53092667       0.68312056
O        7.51448126      -6.37998883      16.36786218      -0.48480416       0.86695188      -0.03243344
O        0.92418330      -6.65274494      18.96902350       2.41257941       2.65514655      -0.15259601
O        7.21463414      -4.15910428      15.89578572       1.56433281       1.99755499      -0.16844944
O        7.32802294      -2.94166694      13.67810858       1.39425947      -1.54015724       0.66553216
O        1.37624523      -3.16777596      10.53135675      -0.21220704      -0.51206094       1.14542192
O       10.16854358      -4.12605801      16.25278232      -0.52327558      -0.98741065       0.14306442
O       10.09490921      -3.26281228      13.62772358       1.30075615       0.72253918       0.32944473
O       16.78936342      -3.08842166      11.06431103      -0.89626040       0.48952779      -0.78141179
O        0.97816651      -4.35638784      19.03379410       0.71261935      -0.17401279      -0.39331659
O        7.46259022      -0.68355167      13.62952440      -0.18340092      -0.65229252      -0.03726557
O        0.82593879      -1.14095564      11.34539462      -0.91994181       1.37124347      -0.11544151
O       16.22971168      -0.92929068      10.55088096       0.64308180       0.43266270      -1.17952040
O       10.29859088      -1.00936117      13.54288615      -0.07266967       0.38069145       1.17599131
O       16.40536858      -4.45377009      19.03118348       0.03482457       0.41484084       0.47276883
O       -0.72069834      -2.22755993      19.40544204       1.87191237       0.20386793      -1.27064133
O       17.91649526      -5.45461230      10.52746876       0.58685074       0.86790473      -2.68285585
C       13.98005152      -4.33437001      17.63810884       4.04056863      -1.06327465       2.07094302
C       14.43654109      -5.47288666      18.39060535      -1.80178604       0.65365161      -0.22374513
C       13.54863861      -6.46791489      18.72808259      -2.00652248      -2.26197497      -0.78837588
C       12.16621460      -6.45328269      18.25808233       1.27615687       0.38986463      -1.18756744
C       11.82556950      -5.32490172      17.45327897       1.00858471       0.01952187       0.62001797
C       12.74811092      -4.26943782      17.16879241      -2.77495277       0.67116699       0.34328909
C       10.61816018      -5.28848747      16.62681500       0.13153302       0.92582398      -0.02416580
C       15.75280751      -5.54978237      18.98709173       1.47122802       0.30055838      -1.00500728
C        6.88254074      -5.24897932      16.36922702      -2.61014916      -2.17754971       1.00262335
C        5.43661182      -5.29597977      16.94486742       1.31398397       0.94418937      -1.32619876
C        4.63578651      -4.14153032      17.00518752       0.58872765      -1.83180213       0.51559724
C        3.39054166      -4.17445034      17.64696144       1.04634393       2.21043823      -1.53253547
C        2.89347916      -5.40691276      18.06785287      -0.90659315      -0.15980384       0.70592625
C        3.67178993      -6.56300466      17.93829924       1.69624481       3.73496420      -2.27897356
C        4.94327535      -6.48481144      17.33466802      -0.97401828      -1.85397378       2.14594827
C        1.57848827      -5.45618659      18.77079589      -3.02217053      -2.15078966       0.24285408
C        6.83783109      -1.82066353      13.40494549       3.50992478       2.06282965       1.74493637
C        5.54447331      -1.81893766      12.89024450      -3.13006585       0.99806478      -1.53756609
C        4.72442903      -0.68666130      12.65330029       3.14704439       0.43486974       1.49427179
C        3.50156963      -0.85784063      12.09160314      -0.96547913       1.95519915       0.39065344
C        2.92135863      -2.07157748      11.84513756       2.36263881      -0.91894371       1.21558887
C        3.74665368      -3.18816575      12.10995890      -1.44248000       0.80548297      -0.33872950
C        5.02193173      -3.05359712      12.59415933      -0.83691368      -0.65391849      -0.57916160
C        1.59677610      -2.12911747      11.30893375      -0.76053906      -1.45182596      -2.88722257
C       10.81449846      -2.18186780      13.44072487      -3.38971130      -0.58816098       1.00020291
C       12.14698328      -2.29460270      12.93760139       0.12232796       1.62216001      -3.35349011
C       13.06928301      -3.30480355      13.06918380      -1.87914179      -2.01717302       2.85793564
C       14.27969519      -3.33216969      12.43941174       1.13283225      -0.58265110       0.90811011
C       14.62236346      -2.22634946      11.65535253       2.66311697      -2.19872583      -0.80625893
C       13.70854143      -1.31518073      11.36294098      -4.53402095       1.08860773       0.07780107
C       12.37703068      -1.41547818      11.86722722       1.36024326       2.28370799      -0.26355146
C       15.93958092      -2.09202714      10.93244483       0.97629834      -0.82944720       2.72684434
H       15.01345995      -4.10115979      12.73461893      -0.25935182       0.21612232      -0.55031948
H       12.61028377      -4.03982133      13.80865339       1.50107596       0.08737843      -0.79201348
H       14.77607780      -3.59827752      17.56794025      -0.28364978       0.57694377      -0.41903123
H       12.37491421      -3.30093320      16.79870762      -0.02531457      -0.63901946      -0.51901629
H        8.89517462      -5.45248676      13.22601068       0.15027328      -0.12187955      -0.36520672
H        8.69288438      -2.11119564      16.68491746      -0.67440607       0.17378705       2.75230546
H       -0.31252946      -2.18616019      18.50693649      -0.42983809      -0.22590434       0.31214017
H       17.79859252      -5.21639803      11.41782396      -0.36836969      -0.30084995       2.56559297
H        5.67047741      -3.87789871      12.73128102       0.38935709      -1.09488791       0.19818425
H        3.22800010      -4.08610703      11.94278283      -0.06537904      -1.75539408      -0.24280626
H        2.95500985      -3.13665304      17.69477320      -0.47022344      -1.47006999       0.35693291
H        5.21266885      -3.38397585      16.55517117      -0.22710196       2.10825384      -0.25840926
H        2.87656120      -0.00954184      11.93643255      -0.44862360       0.93928525      -0.23137153
H        5.22405824       0.24893483      13.05161294      -1.07025520      -0.52415284      -0.90828340
H        5.63461409      -7.29859059      17.52094619       0.04341205      -0.43460183      -0.47462671
H        3.50980688      -7.30750910      18.56515460      -1.41800618      -4.01525560       2.31374208
H       11.47690318      -7.36452356      18.22647220       0.95733285       1.33174001       0.50184595
H       13.98928769      -7.41688344      19.12562807      -0.57817224       0.84314552       0.23422649
H       11.66822607      -0.61922307      11.48008783       0.46611841      -1.13432915       0.82178685
H       13.84884382      -0.53444072      10.68041548       0.69365900       1.09481489      -1.11384003
Al       8.84727831      -0.27049318      14.94624964      -0.90704927      -1.02427667       0.31227696
Al       8.52606294       2.98835585      15.22805754       1.53716705      -0.60479087       0.96224109
Al      -0.32834290       2.80451368       9.93075937       1.46244564       1.05354662       0.79141287
Al      -0.25043504      -0.39293410       9.59900671      -0.83513499      -2.17253657      -0.46541342
O        9.86929782       0.38725771      16.41122451       0.04838457      -0.91221616      -0.58475066
O        8.82339296       1.42480650      14.32003727      -0.36598936      -0.35637498       1.68424753
O        8.89032842       4.58502963      15.97251535      -4.48676870       1.58914962      -1.73814094
O       16.51799400       0.13556250      18.87164377      -1.52161805       0.34506932      -0.21041293
O        7.11185018       0.13075069      16.00730089       0.88490898      -1.01340604      -0.03237533
O        0.86596548      -0.01697466      18.82456676      -1.82899757      -2.43679714       1.35038616
O        7.28528154       2.34209538      16.43693964      -0.31926470      -0.14200769       0.12582671
O        7.23618532       3.54936011      14.15051234      -0.04047071      -2.96731964       0.11149435
O        1.13321686       3.30759302      11.25629564       0.20727104       1.32795894       0.27313499
O        9.91135062       2.59201170      16.76097967      -1.74010835       2.81870215      -1.28101728
O       10.17616531       3.48019755      13.95891227      -1.04529544      -0.51902966       0.05711295
O       16.55410342       3.38235839      11.27240529       0.30274074      -1.89900460      -0.25347171
O        0.95089360       2.29558329      19.11774726      -0.99153932      -1.24851236       0.17310622
O        7.44782188       5.73244193      13.68876964      -1.31970467      -1.84439950       0.76619188
O        0.88591505       5.59636900      11.24653253       0.29668579       0.10240550      -0.65401259
O       16.50374268       5.57158067      10.97779201      -0.39310216       1.61348768      -0.21889654
O       10.13470228       5.75952180      13.92530915      -0.12161216      -0.28646154      -0.32259531
O       16.17983646       2.24054450      19.46989075       1.64145717       3.03204871       1.40250191
O       -0.29828767       4.42182448      19.62787775      -0.95882666       0.41505116      -1.37778024
O       17.92601504       1.18826149      10.43107587      -0.77686299      -0.57758089      -0.73410194
C       13.62164925       2.43704792      18.56248334       1.99437608       0.79854202       1.25296757
C       14.25262691       1.16839647      18.71131471       2.98682454       2.70898649      -0.03701000
C       13.70406969       0.04704232      18.24379980      -2.67971756       1.01646309      -0.43970444
C       12.41567893       0.18373810      17.68992453       0.76543290      -0.88698952      -0.06251484
C       11.75167584       1.39700807      17.48926911      -0.05580323      -0.76091187       0.89095159
C       12.36277340       2.53228368      18.05880334      -1.41316736       1.59639550      -0.92770757
C       10.39523926       1.48237167      16.81712829       2.62157566      -3.06259187       1.15309512
C       15.75441269       1.16179965      19.06489933      -0.90066265      -1.80773403      -0.94790410
C        6.66732661       1.19454964      16.50357809       0.43304220       1.53983328      -1.15830263
C        5.30240159       1.23304044      17.01800517      -0.96156386      -1.94598791       2.04242023
C        4.80364728       2.37636148      17.70883566      -0.31712863      -0.24178605      -1.47322525
C        3.50636012       2.37544236      18.20320835      -0.09665652      -2.40741612      -0.73836843
C        2.78356810       1.13137454      18.10291248      -1.83515330       2.87089401       2.15076807
C        3.31467636      -0.04133337      17.68709477       2.03120919      -0.80713105      -0.63150412
C        4.62960092      -0.04008773      17.14203138      -0.91665182       1.58924835       0.23112265
C        1.33397558       1.11946160      18.80516253       4.69888884       2.59739083      -2.78965331
C        6.74437944       4.58466730      13.72232755       0.37701117       5.48294938      -0.28604862
C        5.32242992       4.66149685      13.33140202       1.35325963       3.14337594       0.40385246
C        4.77337841       5.95093493      13.01338078      -2.11284840      -1.33256584      -1.85288517
C        3.43569994       5.95082687      12.37804230       2.54558875       0.53766039       1.33807572
C        2.87517749       4.72547617      12.21352458      -2.38331202      -3.79490587       0.70921623
C        3.35157320       3.50810694      12.85370887      -1.33024157       0.87943562      -0.97645877
C        4.56965541       3.53539783      13.44705708      -0.85352095      -0.82740728      -0.62197047
C        1.51247581       4.52518893      11.53965942       0.42483729      -0.60029041      -0.51297523
C       10.60124560       4.62080057      13.58626981      -0.46588187      -0.10633981       0.96990297