109
Lattice="13.7733022 0.0 0.0 -6.871987542829099 11.946922944007499 0.0 -0.012224107353221169 -0.026308256943985177 14.998258534996314" Properties=species:S:1:pos:R:3:forces:R:3 reference_status=T energy=-35416.12529592137 stress="-0.018367573998743 -0.002463723976011472 0.0016891110876144921 -0.002463723976011472 -0.009261105672663675 0.003037034341881966 0.0016891110876144921 0.003037034341881966 -0.021015608711533632" pbc="T T T"
Si      10.23051588       0.70584088       6.78202914       0.85759512       3.18971802       3.34387212
Si       3.22187627       8.56305634       4.85212181      -1.98223481       2.27113633      -0.69166280
Si       1.32565598      11.33455298       1.86497653      -0.28850711       0.51016141      -3.15773041
Si      -3.60339194       8.73661048       1.69215606       1.70918929       1.19892709       0.73275109
Si       1.42201622       5.93759726       1.75535536      -2.99418972       1.24710700      -0.49633608
Si      -1.60057197      11.27729057       5.17059888       0.73461205      -1.18635285      -4.54920897
Si      -5.48517050       9.76429657       6.94814642       0.36539235       1.73907477       1.48660476
Si      -2.08427428       5.71967146       4.75379068       0.71102526       1.84205620      -0.26509207
Si       1.25713940       3.25368083       6.89909099       3.06417259       1.07270700       0.78645526
Si       4.99457200       7.30137616      15.05192568       2.39553453      -0.25129964      -1.14888159
Si       3.65860197       4.51510012      11.88773041      -1.71514602       1.62426112      -1.42450953
Si       8.13777854       2.01560397      11.96410098       0.54317078      -2.41667877      -0.09014237
Si       8.14540888       7.21076668      11.75432150       0.24586022      -0.83702424       0.02995798
Si       5.08533764       9.83353507       9.97131012      -0.77582015       2.32167650      -2.51315994
Si       9.66939560       4.63951717      14.97467606       1.25204969      -1.26776170       1.42716188
Si       5.04748935       1.99009433      15.10850999      -0.87875273      -2.38972230       1.57291104
Si      -1.77695281       3.30317306       9.95409497       0.03584684      -1.23401237       3.15385987
Si       2.90568692       0.56926626      10.15486492      -0.58619460      -0.63396312       1.48711641
Si       1.53224701      11.27732878       4.89923559      -3.19313450      -0.31078880      -2.01612401
Si       2.85697591       8.58214286       1.70881886      -0.01785168       1.60851105      -1.75950218
Si      -1.82335238      11.36251541       1.78612587       0.03515624      -0.18003997       3.24978465
Si       3.06174795       0.58969515       6.92008392      -3.06310404      -1.49271216       0.40755125
Si      -3.36606322       8.70943636       4.86920709      -0.60763040       0.83357279      -1.08015086
Si      -1.70310453       3.33511054       6.81570965      -1.05206721      -0.21778531      -2.63271933
Si      -5.60252898       9.99587538      10.22476504      -1.30187818      -1.61702038      -2.67458152
Si       8.21743586       1.84520110      15.00975487       0.64517879      -2.47425349       1.90214906
Si       3.59308480       4.70624293      15.11363376      -1.35498587       0.59496874      -0.41748959
Si       9.70178524       4.74774731      11.87139350       0.48141031      -0.79226647      -0.82319839
Si       5.02752958       1.82472739      12.03183424       0.40680100       0.73865640      -0.76517013
Si       1.31771894       3.32188585      10.09215953      -0.66205243      -0.19354238       0.98739111
Si      10.18705465       0.58785375       9.91365244       1.98687154       1.22410642       2.41642372
Si       5.08243316      10.04427151       6.93295742       0.32447427      -1.42299772      -0.21566209
Si       5.10385606       7.22525206      11.69308288       0.92687299      -1.51242532       1.90765482
Si      -1.83485395       5.98037677       1.72188776      -1.13642100      -0.79957663      -0.58462159
Si       8.15827241       7.13977869      14.97362310      -3.02985556       0.66760138       1.84432288
Al       1.67775928       5.90981625       5.01360166      -0.82228925      -0.69634941       1.60555943
O       11.52814734       1.68856192      10.03220651      -0.33357906       0.70549945       0.27403334
O       -2.84039046       4.13498725      10.98334622       1.30054944       0.12830526      -0.87060131
O       -0.22117826       3.57496999      10.71080025      -1.44741497      -0.86719254      -1.99484350
O       -1.74896058       3.71184425       8.36769868       0.16285986       0.69690322       0.59347905
O        6.55406063      10.49392424      10.26510598       0.96711127      -0.89617299      -0.48978542
O        1.83870331       1.77372827      10.31403810      -0.18219044       0.30182131       0.21541064
O       -4.93292749      11.28168771       6.65981972       0.92332744       1.31005224      -0.34676574
O       -0.15614326       2.96439446       6.28719466      -4.11982649      -0.39152351       0.28203050
O        4.47244517      11.56196165       6.94386228       1.84910976      -2.01698224      -0.48979108
O        4.45228424       5.90338910      15.86418216      -0.11165479       0.86611987      -2.14229525
O        6.62903722       1.95658669      15.35534167       0.66903092       0.88230908      -0.00224766
O        8.45250099       5.57064147      15.43946971      -0.74557986       2.07026476       0.31213349
O        8.57329918       3.51813557      11.65096397      -0.06106525       1.55348533       0.66349482
O        6.66066624       6.50438722      11.44596443      -0.45282941       1.91630247       0.09879876
O        4.71274096       3.36141689      11.60229948       0.07325073      -0.33204514      -0.73516844
O       -2.12909826       9.76378310       5.40469790      -1.41130537      -3.10227068      -0.64673328
O       -0.41009345       6.32966379       5.02726538       0.53098941      -7.15703334      -0.26141488
O        2.14613126       9.83957910       5.00395684      -0.74218395      -0.13465897       0.08536989
O        1.62127102       7.57484281       1.38128159       0.88985887      -1.62080864      -0.05659873
O       -0.26715620      11.02973635       1.40079381       0.95969775       0.27164118       0.60158111
O       -2.64274597       7.43337272       1.63067755       1.79266736      -0.95024329       0.04229002
O        4.77541198       8.67191340      10.97965627       0.02011837      -2.62526725       1.49640529
O        4.17684189       0.73521104      11.24165558      -1.32546394      -0.75804817      -2.24785241
O        4.36971974       0.24069394       6.04012741      -1.70175777       2.83239173       2.42226681
O       -2.38885687       4.62997789       5.86360582       0.82834471      -1.37641190       1.47540761
O        4.36474587       9.25647596       5.67864753       2.27804951      -0.19067817       1.11859245
O       -4.57927128       8.80888852       5.98316127      -0.01291722      -0.48870813      -0.37009284
O        1.76117551       4.58248055       6.18427542       0.53387573       1.77565026      -1.72231015
O        9.06781098       0.46030570       5.74922576       1.19934464       1.60075764       1.12026264
O        9.00981500       0.94680031      11.05546231       1.00538420      -0.22483836      -1.22203360
O        8.39674667       8.49652522      10.81575804      -0.42621643       0.61413529       1.66609966
O        2.23341844       4.29180083      11.04007515       0.82252836      -0.16920225       0.27640698
O        4.04283943       8.51652268       0.49672176      -1.12992022       0.30971100       2.12444562
O        4.44836761       0.77348021       1.18243095       0.65295792       2.56944345      -2.12477832
O       -2.60822807       5.12500696       0.49941086      -0.01362633      -0.24204470       1.92826221
O        2.03513311       4.78733313      15.73579306       1.36810826       0.44234753       0.17486434
O        8.82822686       0.61096539      15.98423588      -1.23288777       0.94465423      -0.99413408
O       -4.89604580       8.36869723       0.80174641       1.11389299       0.41380623      -0.15239444
O        3.99196567      11.04310142      10.03591598      -0.78413099       0.75573315       1.28375550
O       -4.80384082      11.17388881      10.96648484       1.59586740       1.33082315      -1.93355148
O        2.30731787       2.03454209       6.70462190       1.03050902      -1.51497329      -0.81841151
O       11.04427978       2.13400018       6.35842262      -0.43054514      -0.76516293       0.93404585
O        6.68351241       9.88098703       6.51869923       0.00503062      -0.12386907       0.99000695
O        6.58698647       7.53191733      15.57583174      -0.77546174      -1.38367321      -1.55984058
O        4.40086206       3.40734479      15.50249258       0.20102737      -1.54418256       0.98946239
O        9.18096131       3.09074142      15.27559729       0.94640258       2.24006094       0.17774243
O        9.37731717       6.22052753      11.19864663      -1.27853925      -0.58827565       0.93464543
O        4.11728843       5.99425352      11.32181893      -0.03349325      -0.08950474      -0.50457852
O        6.57581259       1.65504343      11.72401769       0.88971129       0.14948241      -0.57845712
O       -0.03453571      11.40992399       5.49025196       0.64473399      -0.50801557      -0.23364953
O       -2.96554753       7.12378042       4.78286460       1.02585944      -0.32568886       1.12824695
O        2.48596348       7.36221482       5.53566767      -0.50786028      -1.89149595       0.13059919
O        2.27021969      10.08757401       1.46562473      -0.04207559      -0.55964333       0.28622860
O       -2.74281312      10.14041617       1.24495815      -1.22920749      -1.76059902       0.24981971
O       -0.24451319       5.81092245       1.40779302      -0.35738285       0.43280514       0.62761199
O        4.70564201       9.33286295       8.39772864       1.51640745       0.17960597      -0.31457244
O        3.22779852       0.45187005       8.54686673       1.16801626      -0.28164997       1.75337679
O       -5.21200920       9.41709174       8.61155901      -0.97624023       1.60740137      -0.73719035
O        1.33007020       3.55625770       8.49238303      -0.47476863       0.41518331       0.75220251
O        9.69917423       0.83026282       8.44808241      -1.39413554       0.19316957      -4.41511873
O        4.92123565       7.36792350      13.34207106       0.50157239      -0.10901478       1.20470745
O        4.69478990       1.64481527      13.56404969      -0.33337080      -0.34308906       1.89053230
O        9.90252506       5.06475502      13.47699673      -0.02851148      -1.04817765      -4.15645648
O        8.40841181       1.46301506      13.48263953       0.31497404       0.32950798      -1.37221689
O        8.28769722       7.44238215      13.40811141      -0.13615484      -0.05249782      -1.88167845
O        3.46911519       4.61005235      13.47570719      -0.58469153       0.66682028       1.42149825
O       -1.97896006      11.59848308       3.55874858       0.74731227      -0.46068773      -1.47374410
O       -2.26151173       5.27614918       3.22765333       0.72971770       0.01714926      -1.57229552
O        3.36555804       8.49057512       3.22995908       1.19335448      -0.67464415       0.50421548
O        1.56454548       5.81754375       3.33499409       0.91228506      -0.92323488      -0.67168584
O        1.49678060      11.84777050       3.33565602       0.09401291      -0.15850698       2.91118937
O       -3.96973180       8.95526533       3.26200570       0.52158842       0.35736640       2.48580186
H       -0.59065756       7.17973874       5.07941001      -0.82618344       7.39947450       0.60265531
109
Lattice="13.7733022 0.0 0.0 -6.871987542829099 11.946922944007499 0.0 -0.012224107353221169 -0.026308256943985177 14.998258534996314" Properties=species:S:1:pos:R:3:forces:R:3 reference_status=T energy=-35415.98125466133 stress="-0.020210981942509695 0.003028467167450756 -0.00047860835005513516 0.003028467167450756 -0.009667305944750433 -0.0010574349720657214 -0.00047860835005513516 -0.0010574349720657214 -0.018133819962366536" pbc="T T T"
Si      10.30178843       0.56244567       6.91569716       0.83109373      -0.70360866       1.25095645
Si       2.86708057       8.67744299       4.96383038       0.32708034       0.00991160      -2.76199338
Si       1.13507769      11.31648249       1.73907883       1.71656990      -1.07723728      -0.94511291
Si      -3.52430367       8.66707564       1.90784622      -0.61626262      -0.11652600      -0.67728776
Si       1.17080963       5.70924530       1.89901998      -1.04661801       1.34752298       1.96901780
Si      -1.84773206      11.25208829       5.26606781       0.92152509       1.86700979      -2.30944114
Si      -5.80240924       9.74109755       6.97561933       2.25556367      -3.74752866       1.23576895
Si      -2.00903030       5.74740366       5.05843749       0.95488927      -0.31945805      -2.26414550
Si       1.41116538       3.15758003       6.94976950      -2.92082329       1.74912830       2.77620078
Si       4.88309362       7.12942403      15.07224522       1.22401129       0.44970603       1.92263972
Si       3.32651056       4.35601086      12.08883337       2.57168699      -0.20445722       3.10127258
Si       7.95040491       1.84896717      11.93402183       0.28354591       0.23810371      -1.23851386
Si       8.13454682       7.26147546      12.16621824       1.53395369       0.08449725       0.31988845
Si       4.99684982       9.63835389      10.15766688       1.76506862      -0.27905727      -1.85934481
Si       9.54321715       4.50213341      15.01359468       0.83282974       1.45022879      -0.48224334
Si       4.85834286       1.56485310      15.18607591       1.63331140       3.82363949      -0.07627744
Si      -1.91143988       3.19649057      10.04513408      -0.31229393       0.53292853       1.23585945
Si       2.83483980       0.64559696      10.13780916       0.58021267      -2.53750366       1.25801053
Si       1.27168080      11.37748091       4.91077117       0.43139669       0.90643786       1.05229758
Si       2.61908643       8.44526372       1.85491577      -0.73447373       1.69266018       0.13113810
Si      -1.91780264      11.25719658       2.07673819      -0.94289405       0.26316271      -1.45470765
Si       2.85200874       0.42895284       6.97253403      -2.40301182       3.23203684       4.11118604
Si      -3.45345268       8.57979195       5.11680159       0.15134029       0.50627288       0.55137363
Si      -1.80065744       3.29036099       7.00387997       0.73171442       0.84910431       2.07073013
Si      -5.61980240       9.69198977      10.07979040      -0.73039441       0.56336474      -0.02835361
Si       8.07205486       1.81265732      15.17249034      -0.78267986       1.25678669      -0.43373279
Si       3.36824095       4.44728490      15.10247769      -0.75515002       1.51706668      -1.28412471
Si       9.53696335       4.44037449      12.00099189       1.04492211      -0.44218658      -0.10921224
Si       4.92751180       1.59131156      12.18188141       0.89217441      -2.30176074      -1.74609645
Si       1.26793683       3.24503901      10.20514261      -2.46112184      -1.32753780       0.86848015
Si      10.24747715       0.57799081       9.91944877      -0.80649753      -2.97162161      -0.17206441
Si       4.88601342       9.76714592       6.86035072       2.64128985      -1.60249673       5.46922226
Si       5.08026640       6.94971914      12.10782665       3.00355420       0.92920447      -1.31483500
Si      -2.05503219       5.96689770       1.86675469       2.55373812      -2.38904918       1.34349406
Si       8.03677859       7.34494843      15.18036974       0.79323886      -0.17026515      -1.05131285
Al       1.58022070       5.76537481       5.12931040       0.69347748      -1.13145723      -0.73933774
O       11.43174067       1.60051998       9.95014372       2.03978485       1.72843709       0.20510103
O       -2.98892783       4.00322705      11.02209085       0.19554527      -0.46647734      -0.52030596
O       -0.37206625       3.32041763      10.62624703       0.33564777       0.49385085      -0.26323676
O       -2.08134567       3.89797303       8.58320797       0.42132568      -0.86231875      -1.93123543
O        6.58975902      10.07512974      10.51783503      -0.68197797       0.45812897      -1.61400653
O        1.67200130       1.71532745      10.56147319       0.85491603      -1.62222738       0.61463614
O       -4.94483924      11.05864190       6.97963589       0.62346737       2.43974671      -0.31547284
O       -0.25673687       2.89929782       6.77394026       0.97910598       1.57761873      -0.83451999
O        4.42156757      11.19544324       6.70108854      -2.17436462       5.32650031       0.06064461
O        4.57346482       5.57129781      15.28537098      -0.94896545      -1.62164322       0.39256120
O        6.46186662       2.07497365      15.59145976      -0.28775686      -1.02578591      -0.64449076
O        8.49661711       5.76751350      15.02568935       0.39815181      -0.10851085       0.54660320
O        8.23473736       3.46312862      11.87324332      -0.08344516       0.09555814      -1.19573789
O        6.75194411       6.39668225      12.15711947      -2.89464740       1.67803009      -0.20157245
O        4.06305770       2.85814908      12.00489999      -0.88401527       5.06486741       0.80733622
O       -2.34229207       9.80258325       5.53673057      -1.55312743      -3.19631599       0.17068887
O       -0.23614675       5.92759611       5.22612904      -2.14440664       1.26308023       3.49382761
O        1.91341529       9.93249320       5.22122014      -1.13442634       0.95763675      -0.24216297
O        1.32482864       7.40354346       1.55827525       1.66952179      -0.73435905       0.97536451
O       -0.48252755      10.95661334       1.32679804       2.61196436       0.92901318       1.38737508
O       -2.36886726       7.53276550       1.58014453      -0.14051697      -0.59435836       0.40839200
O        4.98196383       8.22500735      11.03126037      -1.17854801      -0.44957645       0.22475197
O        4.12566602       0.63068670      11.19377230      -1.98041087      -1.59831457      -1.66013058
O        4.08244256       0.34959517       6.04795503       2.01316364       0.31360108      -0.96029425
O       -2.35516028       4.57319019       6.08734337      -0.20969970      -0.88178561       0.18349039
O        4.19073262       8.90271732       5.82222014      -0.98409032      -3.18950925      -1.87112561
O       -4.84939193       8.67886991       5.99349583       0.48158463       0.40529433      -0.45593119
O        2.05680445       4.48135061       6.32296113      -0.51144594       0.89291797      -1.25992086
O        9.09154431       0.42147612       5.88772866      -1.00244954       0.45622224      -1.94340035
O        9.15311071       1.03681457      11.01470811      -2.18517663       0.37722509       1.37007979
O        8.45793738       8.48323685      11.09640094       0.02584936      -1.81877846       1.08922325
O        2.17719227       4.23992826      11.09143527      -2.95074528       0.30840230      -2.94367988
O        3.84436577       8.12988157       0.85732596       0.88888494      -0.62302462      -0.51019947
O        4.42850791       0.74642637       1.43437351      -0.97471248      -1.55922763       0.47208029
O       -3.00316882       5.04032318       0.99421985      -0.24299241      -0.55802662      -0.46049438
O        2.02659749       4.73464020      15.95827959       0.92328219      -0.17997878       0.03953534
O        8.86062129       0.56911791      15.91191027      -2.56133676      -0.58596371       0.43561279
O       -5.03094239       8.50992090       1.18201996       1.49800863      -1.19931224       0.74346179
O        4.02893471      10.92602092      10.24718623      -1.42986565       2.34533888       0.85268123
O       -4.58181503      10.92662607      10.38339354      -0.22621082       1.87561527      -0.97201077
O        1.92043019       1.76517741       6.49070059       2.27325440      -3.44824966      -0.49849735
O       11.39149189       1.79751050       6.86843104      -2.25887268      -0.34464098      -0.84127119
O        6.47520184       9.77915156       6.44742985       0.74781364      -0.22484710       0.34569307
O        6.49069827       7.21049686      15.53009306      -2.09681449       0.91222490       0.05354374
O        3.86119913       2.95642467      15.17793385       1.86713988      -2.51403720       0.39117126
O        8.88311736       3.18884471      15.63587134      -0.64897014      -1.38361304      -0.08537297
O        9.12771840       5.97264628      11.74436779       0.16658847       1.02433786       0.46743945
O        4.25942888       5.64815816      11.68350519      -0.28329394      -0.56477525      -0.24839635
O        6.36546792       1.58076017      11.35451118       2.45866386       0.48550247       1.91102759
O       -0.27822312      11.55550683       5.51814745       0.92325545      -0.38315354      -0.00305704
O       -2.49869421       7.23485599       5.38808479      -1.22620907       0.80814304       0.68602591
O        1.99006614       7.43000915       5.30111928      -0.22523688      -1.64814410       0.91276792
O        2.11883278      10.01718314       1.44302973      -0.92277105      -0.85907145       0.33859169
O       -2.74816976       9.98788980       1.35751090      -0.44406709       1.45830154       1.64480526
O       -0.41676592       5.38960770       1.62781542      -2.47338703       1.27684746      -0.07601570
O        4.66669757       9.30971162       8.50988060       1.35287396      -0.36618065      -1.08788062
O        3.41358793       0.92699580       8.61393752      -1.41866387      -1.38484666      -2.11131448
O       -5.46176678       9.09300631       8.51638319      -1.32142114       1.04455702      -0.42806608
O        1.37439399       3.26956405       8.64950992       1.01547424       1.19221805      -2.93265756
O        9.54668241       0.58531430       8.39701319       0.99823191      -0.38288871       0.53494736
O        4.77615244       7.57069923      13.55884660      -0.55456951       0.42925959      -1.37088865
O        4.86918016       0.97376912      13.68071262       0.30950582      -0.20816218       0.57921868
O       10.15393974       4.19294276      13.50714107      -0.51183777       0.42184761       1.08941403
O        8.10076281       1.63660044      13.53263919      -0.12594241      -1.26462290       0.76300834
O        8.43595582       7.94979965      13.71462641      -0.59993251      -0.50219099      -2.25755627
O        2.73769069       4.66830251      13.59346503       0.66598262      -0.26416904      -1.03868513
O       -2.08970971      11.62805339       3.64762721       0.45309115      -1.12574321       0.01138690
O       -2.35262684       5.42912236       3.49696335       0.27159850       0.98160509      -0.46142255
O        3.37502420       8.64190847       3.33652402      -1.46386489      -0.45879180       0.62600505
O        1.53166175       5.35254888       3.46324048       0.58681937       0.24558768      -1.12682718
O        1.35011077      11.72388021       3.30299340      -0.84408243       0.06911486       1.64548661
O       -3.79687523       8.64762395       3.51299865       0.31906416       0.29051822       0.75631833
H       -0.28074765       6.36723721       6.17893613       0.15884225      -0.66576870      -1.97278292
109
Lattice="13.7733022 0.0 0.0 -6.871987542829099 11.946922944007499 0.0 -0.012224107353221169 -0.026308256943985177 14.998258534996314" Properties=species:S:1:pos:R:3:forces:R:3 reference_status=T energy=-35415.45081241083 stress="-0.004986687859407566 -0.0004990732946875366 -0.0003509398210443541 -0.0004990732946875366 -0.013738592383846625 -0.003470802243483842 -0.0003509398210443541 -0.003470802243483842 -0.01438799277803068" pbc="T T T"
Si      10.23210156       0.68842033       6.85393195      -1.95328984       1.43630884       0.52614853
Si       2.66977037       8.62954291       5.00126967      -0.61256897       2.57312476      -0.14554605
Si       1.03579953      11.40358997       1.95552018       0.88597702       1.86887127       0.75452062
Si      -3.77242545       8.60398736       1.94357272      -0.61883424      -0.66748826       0.51568363
Si       0.96727211       5.96196616       1.84609852       0.81180120      -0.40577359       0.00324730
Si      -2.04133416      11.30452421       4.91682807      -1.39470427       1.82169512      -0.64749587
Si      -5.79511507       9.74592862       6.98676180      -0.95732462       1.56147838      -3.97326588
Si      -2.07708344       5.84645063       5.18910563       1.52113365      -2.41321138      -3.59153417
Si       1.18170637       3.27345799       7.08152107       2.45796144       0.48050425      -1.14996300
Si       4.68527293       7.37852732      14.95623053      -1.17774377      -1.95050585       0.66619242
Si       3.29838113       4.37711450      11.94590905       1.39077614       3.23358619      -1.82384713
Si       7.90014941       1.75065670      11.80343508      -0.43830524      -0.91266559      -0.32311004
Si       7.81338487       7.12643346      11.78306133      -0.05380857      -2.46129924       3.74088750
Si       4.89225562       9.87885575      10.01166915      -1.60610399       2.62540917      -0.50883884
Si       9.20471819       4.77193643      15.14649234       4.45376910      -4.62009944      -1.08463846
Si       4.76055564       1.83611199      14.96569552      -0.41566668      -1.16573003      -1.52759380
Si      -2.02149720       3.39731188      10.11131586      -1.19660024      -0.62118217       0.47935394
Si       2.83395475       0.15352143      10.09301781      -1.62836152       1.99917324      -1.12292682
Si       1.17549276      11.49953127       4.99509750       0.10001335      -1.03230828      -1.48200249
Si       2.59524087       8.70016411       1.89052215      -0.18760467       1.16598406      -0.03676524
Si      -2.19299386      11.47683841       1.99280281      -0.02122497      -0.60492097       0.06011960
Si       2.54780900       0.42782400       6.99846766       2.29098010      -3.09595657      -0.61576383
Si      -3.59138799       8.59804915       5.00038232      -1.89445837      -0.90157076      -2.39080576
Si      -1.85703009       3.25750360       7.03930027      -6.52304862       2.37438669       1.25320617
Si      -5.91159979       9.70341470       9.98215431       1.16613113      -0.73273617       2.10016824
Si       7.90881563       1.74682208      14.91601801      -1.12919054       1.13668325       1.70001508
Si       3.11230828       4.52841641      15.04894556      -0.32752052       2.37369867       1.56776832
Si       9.44234635       4.53974572      11.98028381      -0.71204239      -0.80248764      -3.28904797
Si       5.01852897       1.88091491      11.68302925      -2.57856213      -1.00074285       0.31147066
Si       1.13224138       3.02215867      10.22106167       1.48617539      -0.20067410      -0.66572602
Si      10.24049508       0.71276043      10.03104247      -2.60505477      -1.48920415      -0.71605537
Si       4.81869443       9.86060213       6.90825002      -0.64715906      -0.47006506      -1.99294603
Si       4.74020895       7.16934322      11.81078355      -1.16936352       0.42501933      -0.96512227
Si      -2.09798446       5.80380600       1.90333488      -2.68529531       0.79552663       1.10556210
Si       7.94042395       7.39361448      14.96392059      -1.76986733       1.60293022      -0.01216698
Al       1.46489129       5.81701545       4.97432441      -1.23672077      -2.01958214      -0.66274046
O       11.30880412       1.81305826      10.33168715       1.56848720       2.28068540       0.35664957
O       -2.94836450       4.31149088      11.09322528      -0.08748128       0.04268186       0.51609243
O       -0.42806441       3.49413730      10.42856911      -0.05423074      -0.80527368       0.19485261
O       -2.47847447       3.85335266       8.61395192       1.77234690      -1.24239776      -2.51132109
O        6.41519597      10.32954188      10.03099243       0.94697182       1.00908865       0.94235103
O        1.71274946       1.43726050      10.30778233      -1.31023067       1.17841174      -0.07093006
O       -5.51340755      11.29760229       6.55802765       1.00434393       0.70112137       0.90548449
O       -0.41250493       2.90199764       6.81529160       5.02733804      -0.47205406       0.50365909
O        4.12670555      11.31798226       6.49177035       2.61759662      -1.91033956       0.37950103
O        4.06435731       5.87351205      15.39622764       0.23005153      -0.67178714       0.14046812
O        6.28569136       1.77037037      15.24883964       2.54413711       2.02208794       0.61183261
O        8.40324498       6.01168654      15.62637705      -1.28765638      -0.19031821       0.07661837
O        8.38568815       3.25429896      11.79421088       0.67175372       2.29457656      -0.53376208
O        6.26740165       6.73382414      11.59623528       0.17406473      -0.50643794       0.69800005
O        4.46133674       3.42210256      11.36161120       1.25513758      -2.16574320       0.80214054
O       -2.37549532       9.65384467       4.68939328       0.31314650       0.93464749       1.86871031
O       -0.42835632       6.35717101       5.41392748       2.30294910       2.68777540       3.64209080
O        1.45436867       9.84998611       5.16327146       0.86188887      -0.54983611       0.94545641
O        1.51060715       7.51865414       1.67600846      -0.52093228      -0.66272297      -0.26975759